DF-ISE text

Info {
  version   = 1.0
  type      = xyplot
  datasets  = [ "Default X [um]" "Default Y [um]" "Default DopingConcentration [cm^-3]" "Default ArsenicActiveConcentration [cm^-3]" "Default BoronActiveConcentration [cm^-3]" "Default Abs(DopingConcentration) [cm^-3]" ]
  functions = [ X Y DopingConcentration ArsenicActiveConcentration BoronActiveConcentration DopingConcentration ]
}

Data {
-4.800000041723e-02 1.471427851357e-03 1.533484764346e+20 1.575494764346e+20 4.201000000000e+18 1.533484764346e+20 
-4.385864734650e-02 1.471427851357e-03 1.440185201161e+20 1.482195201161e+20 4.201000000000e+18 1.440185201161e+20 
-4.199999943376e-02 1.471427851357e-03 1.399135946198e+20 1.441145946198e+20 4.201000000000e+18 1.399135946198e+20 
-3.755133599043e-02 1.471427851357e-03 1.254315739783e+20 1.296325739783e+20 4.201000000000e+18 1.254315739783e+20 
-3.599999845028e-02 1.471427851357e-03 1.194508873471e+20 1.236518873471e+20 4.201000000000e+18 1.194508873471e+20 
-3.289732709527e-02 1.471427851357e-03 1.077192588187e+20 1.119202588187e+20 4.201000000000e+18 1.077192588187e+20 
-2.999999932945e-02 1.471427851357e-03 9.597488414353e+19 1.001758841435e+20 4.201000000000e+18 9.597488414353e+19 
-2.710267342627e-02 1.471427851357e-03 8.706494014859e+19 9.126594014859e+19 4.201000000000e+18 8.706494014859e+19 
-2.400000020862e-02 1.471427851357e-03 7.757661940465e+19 8.177761940465e+19 4.201000000000e+18 7.757661940465e+19 
-2.110267244279e-02 1.471427851357e-03 7.568601242206e+19 7.988701242206e+19 4.201000000000e+18 7.568601242206e+19 
-2.099999971688e-02 1.471427851357e-03 7.546973843720e+19 7.967073843720e+19 4.201000000000e+18 7.546973843720e+19 
-1.810267195106e-02 1.471427851357e-03 7.102316739257e+19 7.522416739257e+19 4.201000000000e+18 7.102316739257e+19 
-1.799999922514e-02 1.471427851357e-03 7.086620122617e+19 7.506720122617e+19 4.201000000000e+18 7.086620122617e+19 
-1.655133627355e-02 1.471427851357e-03 6.918374208547e+19 7.338474208547e+19 4.201000000000e+18 6.918374208547e+19 
-1.649999991059e-02 1.471427851357e-03 6.912435044216e+19 7.332535044216e+19 4.201000000000e+18 6.912435044216e+19 
-1.639732718468e-02 1.471427851357e-03 6.906236890007e+19 7.326336890007e+19 4.201000000000e+18 6.906236890007e+19 
-1.499999966472e-02 1.471427851357e-03 6.773479048741e+19 7.193579048741e+19 4.201000000000e+18 6.773479048741e+19 
-1.360267400742e-02 1.471427851357e-03 4.143889079203e+19 4.563989079203e+19 4.201000000000e+18 4.143889079203e+19 
-1.350000035018e-02 1.471427851357e-03 3.977254796601e+19 4.397354796601e+19 4.201000000000e+18 3.977254796601e+19 
-1.329465396702e-02 1.471427851357e-03 3.560933811578e+19 3.981033811578e+19 4.201000000000e+18 3.560933811578e+19 
-1.200000010431e-02 1.471427851357e-03 7.370347422374e+18 1.157134742237e+19 4.201000000000e+18 7.370347422374e+18 
-1.070534624159e-02 1.471427851357e-03 -2.082430458433e+17 3.992756954157e+18 4.201000000000e+18 2.082430458433e+17 
-1.049999985844e-02 1.471427851357e-03 -1.334489522024e+18 2.866510477976e+18 4.201000000000e+18 1.334489522024e+18 
-9.852673858404e-03 1.471427851357e-03 -2.065712314301e+18 2.135287685699e+18 4.201000000000e+18 2.065712314301e+18 
-9.750000201166e-03 1.471427851357e-03 -2.176509095090e+18 2.024490904910e+18 4.201000000000e+18 2.176509095090e+18 
-9.426336735487e-03 1.471427851357e-03 -2.360527839857e+18 1.840472160143e+18 4.201000000000e+18 2.360527839857e+18 
-9.375000372529e-03 1.471427851357e-03 -2.388972515861e+18 1.812027484139e+18 4.201000000000e+18 2.388972515861e+18 
-9.051335975528e-03 1.471427851357e-03 -2.526220930851e+18 1.674779069149e+18 4.201000000000e+18 2.526220930851e+18 
-8.999999612570e-03 1.471427851357e-03 -2.547676854852e+18 1.653323145148e+18 4.201000000000e+18 2.547676854852e+18 
-8.676336146891e-03 1.471427851357e-03 -2.660962291125e+18 1.540037708875e+18 4.201000000000e+18 2.660962291125e+18 
-8.624999783933e-03 1.471427851357e-03 -2.678802817973e+18 1.522197182027e+18 4.201000000000e+18 2.678802817973e+18 
-8.301336318254e-03 1.471427851357e-03 -2.778663830848e+18 1.422336169152e+18 4.201000000000e+18 2.778663830848e+18 
-8.249999955297e-03 1.471427851357e-03 -2.794449778314e+18 1.406550221686e+18 4.201000000000e+18 2.794449778314e+18 
-7.602673023939e-03 1.471427851357e-03 -2.969744900945e+18 1.231255099055e+18 4.201000000000e+18 2.969744900945e+18 
-7.499999832362e-03 1.471427851357e-03 -2.997509290314e+18 1.203490709686e+18 4.201000000000e+18 2.997509290314e+18 
-6.852673366666e-03 1.471427851357e-03 -3.148854074993e+18 1.052145925007e+18 4.201000000000e+18 3.148854074993e+18 
-6.750000175089e-03 1.471427851357e-03 -3.172839086050e+18 1.028160913950e+18 4.201000000000e+18 3.172839086050e+18 
-6.426336709410e-03 1.471427851357e-03 -3.240825230408e+18 9.601747695923e+17 4.201000000000e+18 3.240825230408e+18 
-6.374999880791e-03 1.471427851357e-03 -3.251600266947e+18 9.493997330534e+17 4.201000000000e+18 3.251600266947e+18 
-6.051336880773e-03 1.471427851357e-03 -3.314893641337e+18 8.861063586632e+17 4.201000000000e+18 3.314893641337e+18 
-6.000000052154e-03 1.471427851357e-03 -3.324924989547e+18 8.760750104529e+17 4.201000000000e+18 3.324924989547e+18 
-5.352673120797e-03 1.471427851357e-03 -3.438549252231e+18 7.624507477691e+17 4.201000000000e+18 3.438549252231e+18 
-5.249999929219e-03 1.471427851357e-03 -3.456557561528e+18 7.444424384724e+17 4.201000000000e+18 3.456557561528e+18 
-4.602672997862e-03 1.471427851357e-03 -3.554609645637e+18 6.463903543630e+17 4.201000000000e+18 3.554609645637e+18 
-4.499999806285e-03 1.471427851357e-03 -3.570149925328e+18 6.308500746721e+17 4.201000000000e+18 3.570149925328e+18 
-3.205346642062e-03 1.471427851357e-03 -3.726867463620e+18 4.741325363797e+17 4.201000000000e+18 3.726867463620e+18 
-3.000000026077e-03 1.471427851357e-03 -3.751705634455e+18 4.492943655452e+17 4.201000000000e+18 3.751705634455e+18 
-1.705346745439e-03 1.471427851357e-03 -3.866344262984e+18 3.346557370162e+17 4.201000000000e+18 3.866344262984e+18 
-1.500000013039e-03 1.471427851357e-03 -3.884513345217e+18 3.164866547833e+17 4.201000000000e+18 3.884513345217e+18 
-2.053467032965e-04 1.471427851357e-03 -3.967372320529e+18 2.336276794711e+17 4.201000000000e+18 3.967372320529e+18 
0.000000000000e+00 1.471427851357e-03 -3.980504643861e+18 2.204953561391e+17 4.201000000000e+18 3.980504643861e+18 
2.053467032965e-04 1.471427851357e-03 -3.967372320529e+18 2.336276794711e+17 4.201000000000e+18 3.967372320529e+18 
1.500000013039e-03 1.471427851357e-03 -3.884513345217e+18 3.164866547833e+17 4.201000000000e+18 3.884513345217e+18 
1.705346745439e-03 1.471427851357e-03 -3.866344262984e+18 3.346557370162e+17 4.201000000000e+18 3.866344262984e+18 
3.000000026077e-03 1.471427851357e-03 -3.751705634455e+18 4.492943655452e+17 4.201000000000e+18 3.751705634455e+18 
3.205346642062e-03 1.471427851357e-03 -3.726867463620e+18 4.741325363797e+17 4.201000000000e+18 3.726867463620e+18 
4.499999806285e-03 1.471427851357e-03 -3.570149925328e+18 6.308500746721e+17 4.201000000000e+18 3.570149925328e+18 
4.602672997862e-03 1.471427851357e-03 -3.554609645637e+18 6.463903543630e+17 4.201000000000e+18 3.554609645637e+18 
5.249999929219e-03 1.471427851357e-03 -3.456557561528e+18 7.444424384724e+17 4.201000000000e+18 3.456557561528e+18 
5.352673120797e-03 1.471427851357e-03 -3.438549252231e+18 7.624507477691e+17 4.201000000000e+18 3.438549252231e+18 
6.000000052154e-03 1.471427851357e-03 -3.324924989547e+18 8.760750104529e+17 4.201000000000e+18 3.324924989547e+18 
6.051336880773e-03 1.471427851357e-03 -3.314893641337e+18 8.861063586632e+17 4.201000000000e+18 3.314893641337e+18 
6.374999880791e-03 1.471427851357e-03 -3.251600266947e+18 9.493997330534e+17 4.201000000000e+18 3.251600266947e+18 
6.426336709410e-03 1.471427851357e-03 -3.240825230408e+18 9.601747695923e+17 4.201000000000e+18 3.240825230408e+18 
6.750000175089e-03 1.471427851357e-03 -3.172839086050e+18 1.028160913950e+18 4.201000000000e+18 3.172839086050e+18 
6.852673366666e-03 1.471427851357e-03 -3.148854074993e+18 1.052145925007e+18 4.201000000000e+18 3.148854074993e+18 
7.499999832362e-03 1.471427851357e-03 -2.997509290314e+18 1.203490709686e+18 4.201000000000e+18 2.997509290314e+18 
7.602673023939e-03 1.471427851357e-03 -2.969744900945e+18 1.231255099055e+18 4.201000000000e+18 2.969744900945e+18 
8.249999955297e-03 1.471427851357e-03 -2.794449778314e+18 1.406550221686e+18 4.201000000000e+18 2.794449778314e+18 
8.301336318254e-03 1.471427851357e-03 -2.778663830848e+18 1.422336169152e+18 4.201000000000e+18 2.778663830848e+18 
8.624999783933e-03 1.471427851357e-03 -2.678802817973e+18 1.522197182027e+18 4.201000000000e+18 2.678802817973e+18 
8.676336146891e-03 1.471427851357e-03 -2.660962291125e+18 1.540037708875e+18 4.201000000000e+18 2.660962291125e+18 
8.999999612570e-03 1.471427851357e-03 -2.547676854852e+18 1.653323145148e+18 4.201000000000e+18 2.547676854852e+18 
9.051335975528e-03 1.471427851357e-03 -2.526220930851e+18 1.674779069149e+18 4.201000000000e+18 2.526220930851e+18 
9.375000372529e-03 1.471427851357e-03 -2.388972515861e+18 1.812027484139e+18 4.201000000000e+18 2.388972515861e+18 
9.426336735487e-03 1.471427851357e-03 -2.360527839857e+18 1.840472160143e+18 4.201000000000e+18 2.360527839857e+18 
9.750000201166e-03 1.471427851357e-03 -2.176509095090e+18 2.024490904910e+18 4.201000000000e+18 2.176509095090e+18 
9.852673858404e-03 1.471427851357e-03 -2.065712314301e+18 2.135287685699e+18 4.201000000000e+18 2.065712314301e+18 
1.049999985844e-02 1.471427851357e-03 -1.334489522024e+18 2.866510477976e+18 4.201000000000e+18 1.334489522024e+18 
1.070534624159e-02 1.471427851357e-03 -2.082430458433e+17 3.992756954157e+18 4.201000000000e+18 2.082430458433e+17 
1.200000010431e-02 1.471427851357e-03 7.370347422374e+18 1.157134742237e+19 4.201000000000e+18 7.370347422374e+18 
1.329465396702e-02 1.471427851357e-03 3.560933811578e+19 3.981033811578e+19 4.201000000000e+18 3.560933811578e+19 
1.350000035018e-02 1.471427851357e-03 3.977254796601e+19 4.397354796601e+19 4.201000000000e+18 3.977254796601e+19 
1.360267400742e-02 1.471427851357e-03 4.143889079203e+19 4.563989079203e+19 4.201000000000e+18 4.143889079203e+19 
1.499999966472e-02 1.471427851357e-03 6.773479048741e+19 7.193579048741e+19 4.201000000000e+18 6.773479048741e+19 
1.639732718468e-02 1.471427851357e-03 6.906236890007e+19 7.326336890007e+19 4.201000000000e+18 6.906236890007e+19 
1.649999991059e-02 1.471427851357e-03 6.912435044216e+19 7.332535044216e+19 4.201000000000e+18 6.912435044216e+19 
1.655133627355e-02 1.471427851357e-03 6.918374208547e+19 7.338474208547e+19 4.201000000000e+18 6.918374208547e+19 
1.799999922514e-02 1.471427851357e-03 7.086620122617e+19 7.506720122617e+19 4.201000000000e+18 7.086620122617e+19 
1.810267195106e-02 1.471427851357e-03 7.102316739257e+19 7.522416739257e+19 4.201000000000e+18 7.102316739257e+19 
2.099999971688e-02 1.471427851357e-03 7.546973843720e+19 7.967073843720e+19 4.201000000000e+18 7.546973843720e+19 
2.110267244279e-02 1.471427851357e-03 7.568601242206e+19 7.988701242206e+19 4.201000000000e+18 7.568601242206e+19 
2.400000020862e-02 1.471427851357e-03 7.757661940465e+19 8.177761940465e+19 4.201000000000e+18 7.757661940465e+19 
2.710267342627e-02 1.471427851357e-03 8.706494014859e+19 9.126594014859e+19 4.201000000000e+18 8.706494014859e+19 
2.999999932945e-02 1.471427851357e-03 9.597488414353e+19 1.001758841435e+20 4.201000000000e+18 9.597488414353e+19 
3.289732709527e-02 1.471427851357e-03 1.077192588187e+20 1.119202588187e+20 4.201000000000e+18 1.077192588187e+20 
3.599999845028e-02 1.471427851357e-03 1.194508873471e+20 1.236518873471e+20 4.201000000000e+18 1.194508873471e+20 
3.755133599043e-02 1.471427851357e-03 1.254315739783e+20 1.296325739783e+20 4.201000000000e+18 1.254315739783e+20 
4.199999943376e-02 1.471427851357e-03 1.399135946198e+20 1.441145946198e+20 4.201000000000e+18 1.399135946198e+20 
4.385864734650e-02 1.471427851357e-03 1.440185201161e+20 1.482195201161e+20 4.201000000000e+18 1.440185201161e+20 
4.800000041723e-02 1.471427851357e-03 1.533484764346e+20 1.575494764346e+20 4.201000000000e+18 1.533484764346e+20 
}
