DF-ISE text

Info {
  version   = 1.0
  type      = xyplot
  datasets  = [
    "time"
    "Substrate OuterVoltage" "Substrate InnerVoltage" "Substrate QuasiFermiPotential" "Substrate DisplacementCurrent" "Substrate eCurrent"
    "Substrate hCurrent" "Substrate TotalCurrent" "Substrate Charge" "source OuterVoltage" "source InnerVoltage"
    "source QuasiFermiPotential" "source DisplacementCurrent" "source eCurrent" "source hCurrent" "source TotalCurrent"
    "source Charge" "drain OuterVoltage" "drain InnerVoltage" "drain QuasiFermiPotential" "drain DisplacementCurrent"
    "drain eCurrent" "drain hCurrent" "drain TotalCurrent" "drain Charge" "gate OuterVoltage"
    "gate InnerVoltage" "gate QuasiFermiPotential" "gate DisplacementCurrent" "gate eCurrent" "gate hCurrent"
    "gate TotalCurrent" "gate Charge" ]
  functions = [
    Time
    OuterVoltage InnerVoltage QuasiFermiPotential DisplacementCurrent eCurrent
    hCurrent TotalCurrent Charge OuterVoltage InnerVoltage
    QuasiFermiPotential DisplacementCurrent eCurrent hCurrent TotalCurrent
    Charge OuterVoltage InnerVoltage QuasiFermiPotential DisplacementCurrent
    eCurrent hCurrent TotalCurrent Charge OuterVoltage
    InnerVoltage QuasiFermiPotential DisplacementCurrent eCurrent hCurrent
    TotalCurrent Charge ]
}

Data {
      0.00000000000000E+00
      0.00000000000000E+00   0.00000000000000E+00   0.00000000000000E+00   0.00000000000000E+00  -1.87805008751080E-18
     -1.20324512962150E-17  -1.39105013837259E-17  -7.95664025319844E-16   0.00000000000000E+00   3.83632395528350E-12
      0.00000000000000E+00   0.00000000000000E+00  -9.59087007269377E-14   0.00000000000000E+00  -9.59087007269377E-14
      4.15349268665012E-16   5.00000000000000E-02   4.99999999961377E-02   0.00000000000000E+00   0.00000000000000E+00
      9.65636101926683E-14   0.00000000000000E+00   9.65636101926683E-14   4.40820115379949E-16   0.00000000000000E+00
      0.00000000000000E+00   0.00000000000000E+00   0.00000000000000E+00   0.00000000000000E+00   0.00000000000000E+00
      0.00000000000000E+00  -6.05053587251160E-17
      3.33333333333333E-02
      0.00000000000000E+00   0.00000000000000E+00   0.00000000000000E+00   0.00000000000000E+00  -1.98493123047637E-18
     -7.25701838444731E-18  -9.24194961492368E-18  -7.95806194076948E-16   0.00000000000000E+00   6.42044690932662E-12
      0.00000000000000E+00   0.00000000000000E+00  -1.60514295616129E-13   0.00000000000000E+00  -1.60514295616129E-13
      4.11236695082207E-16   5.00000000000000E-02   4.99999999935543E-02   0.00000000000000E+00   0.00000000000000E+00
      1.61131391330613E-13   0.00000000000000E+00   1.61131391330613E-13   4.36765283170721E-16   2.83333333333333E-02
      2.83333333333333E-02   0.00000000000000E+00   0.00000000000000E+00   0.00000000000000E+00   0.00000000000000E+00
      0.00000000000000E+00  -5.21957841759820E-17
      6.66666666666667E-02
      0.00000000000000E+00   0.00000000000000E+00   0.00000000000000E+00   0.00000000000000E+00  -1.36833391478471E-18
     -5.69590265434844E-18  -7.06423656913314E-18  -7.95947688337440E-16   0.00000000000000E+00   1.19030726324094E-11
      0.00000000000000E+00   0.00000000000000E+00  -2.97638687366828E-13   0.00000000000000E+00  -2.97638687366828E-13
      4.07110651817152E-16   5.00000000000000E-02   4.99999999880721E-02   0.00000000000000E+00   0.00000000000000E+00
      2.98195240877852E-13   0.00000000000000E+00   2.98195240877852E-13   4.32697083269185E-16   5.66666666666667E-02
      5.66666666666667E-02   0.00000000000000E+00   0.00000000000000E+00   0.00000000000000E+00   0.00000000000000E+00
      0.00000000000000E+00  -4.38600467488959E-17
      1.00000000000000E-01
      0.00000000000000E+00   0.00000000000000E+00   0.00000000000000E+00   0.00000000000000E+00  -1.47532872827117E-18
     -5.14891428269970E-18  -6.62424301097087E-18  -7.96088601645048E-16   0.00000000000000E+00   2.38770282052290E-11
      0.00000000000000E+00   0.00000000000000E+00  -5.96983262191522E-13   0.00000000000000E+00  -5.96983262191522E-13
      4.02971341866626E-16   5.00000000000000E-02   4.99999999760984E-02   0.00000000000000E+00   0.00000000000000E+00
      5.97615272715005E-13   0.00000000000000E+00   5.97615272715005E-13   4.28615362010971E-16   8.50000000000000E-02
      8.50000000000000E-02   0.00000000000000E+00   0.00000000000000E+00   0.00000000000000E+00   0.00000000000000E+00
      0.00000000000000E+00  -3.54981022325500E-17
      1.33333333333333E-01
      0.00000000000000E+00   0.00000000000000E+00   0.00000000000000E+00   0.00000000000000E+00  -1.79501327956349E-18
     -4.95832196920789E-18  -6.75333524877138E-18  -7.96229035204283E-16   0.00000000000000E+00   5.04763757792683E-11
      0.00000000000000E+00   0.00000000000000E+00  -1.26195304418627E-12   0.00000000000000E+00  -1.26195304418627E-12
      3.98819026807585E-16   5.00000000000000E-02   4.99999999494992E-02   0.00000000000000E+00   0.00000000000000E+00
      1.26263053603699E-12   0.00000000000000E+00   1.26263053603699E-12   4.24520087513168E-16   1.13333333333333E-01
      1.13333333333333E-01   0.00000000000000E+00   0.00000000000000E+00   0.00000000000000E+00   0.00000000000000E+00
      0.00000000000000E+00  -2.71100791164693E-17
      1.66666666666667E-01
      0.00000000000000E+00   0.00000000000000E+00   0.00000000000000E+00   0.00000000000000E+00  -1.50356964085935E-18
     -4.90588076483221E-18  -6.40945040569155E-18  -7.96369103600035E-16   0.00000000000000E+00   1.10170889548840E-10
      0.00000000000000E+00   0.00000000000000E+00  -2.75440004030916E-12   0.00000000000000E+00  -2.75440004030916E-12
      3.94653997487542E-16   5.00000000000000E-02   4.99999998898049E-02   0.00000000000000E+00   0.00000000000000E+00
      2.75500483641896E-12   0.00000000000000E+00   2.75500483641896E-12   4.20411343171886E-16   1.41666666666667E-01
      1.41666666666667E-01   0.00000000000000E+00   0.00000000000000E+00   0.00000000000000E+00   0.00000000000000E+00
      0.00000000000000E+00  -1.86962370593911E-17
      2.00000000000000E-01
      0.00000000000000E+00   0.00000000000000E+00   0.00000000000000E+00   0.00000000000000E+00  -1.96764038843375E-18
     -4.91335304906107E-18  -6.88099343749483E-18  -7.96508941451025E-16   0.00000000000000E+00   2.44955565831540E-10
      0.00000000000000E+00   0.00000000000000E+00  -6.12391457242650E-12   0.00000000000000E+00  -6.12391457242650E-12
      3.90476550252342E-16   5.00000000000000E-02   4.99999997550203E-02   0.00000000000000E+00   0.00000000000000E+00
      6.12452871723785E-12   0.00000000000000E+00   6.12452871723785E-12   4.16289307597818E-16   1.70000000000000E-01
      1.70000000000000E-01   0.00000000000000E+00   0.00000000000000E+00   0.00000000000000E+00   0.00000000000000E+00
      0.00000000000000E+00  -1.02569163991323E-17
      2.33333333333333E-01
      0.00000000000000E+00   0.00000000000000E+00   0.00000000000000E+00   0.00000000000000E+00   2.02390503094600E-16
     -4.95029302782943E-18   1.97440210066771E-16  -7.96648712125232E-16   0.00000000000000E+00   5.50505852294840E-10
      0.00000000000000E+00   0.00000000000000E+00  -1.37626448419088E-11   0.00000000000000E+00  -1.37626448419088E-11
      3.86286971924477E-16   5.00000000000000E-02   4.99999994494702E-02   0.00000000000000E+00   0.00000000000000E+00
      1.37633041132740E-11   0.00000000000000E+00   1.37633041132740E-11   4.12154227293067E-16   1.98333333333333E-01
      1.98333333333333E-01   0.00000000000000E+00   0.00000000000000E+00   0.00000000000000E+00   0.00000000000000E+00
      0.00000000000000E+00  -1.79248709231127E-18
      2.66666666666667E-01
      0.00000000000000E+00   0.00000000000000E+00   0.00000000000000E+00   0.00000000000000E+00   2.47702503872084E-16
     -5.00351077024526E-18   2.42698993101839E-16  -7.96788620030089E-16   0.00000000000000E+00   1.24492390759116E-09
      0.00000000000000E+00   0.00000000000000E+00  -3.11231090632238E-11   0.00000000000000E+00  -3.11231090632238E-11
      3.82085534979824E-16   5.00000000000000E-02   4.99999987550523E-02   0.00000000000000E+00   0.00000000000000E+00
      3.11237244277240E-11   0.00000000000000E+00   3.11237244277240E-11   4.08006388568600E-16   2.26666666666667E-01
      2.26666666666667E-01   0.00000000000000E+00   0.00000000000000E+00   0.00000000000000E+00   0.00000000000000E+00
      0.00000000000000E+00   6.69669648166279E-18
      3.00000000000000E-01
      0.00000000000000E+00   0.00000000000000E+00   0.00000000000000E+00   0.00000000000000E+00   3.03316764450613E-16
     -5.06681213485316E-18   2.98249952315759E-16  -7.96928928774861E-16   0.00000000000000E+00   2.82528060902501E-09
      0.00000000000000E+00   0.00000000000000E+00  -7.06320354930122E-11   0.00000000000000E+00  -7.06320354930122E-11
      3.77872503140222E-16   5.00000000000000E-02   4.99999971746957E-02   0.00000000000000E+00   0.00000000000000E+00
      7.06326294291596E-11   0.00000000000000E+00   7.06326294291596E-11   4.03846094020126E-16   2.55000000000000E-01
      2.55000000000000E-01   0.00000000000000E+00   0.00000000000000E+00   0.00000000000000E+00   0.00000000000000E+00
      0.00000000000000E+00   1.52103316145103E-17
      3.33333333333333E-01
      0.00000000000000E+00   0.00000000000000E+00   0.00000000000000E+00   0.00000000000000E+00   4.60366790367632E-16
     -5.13718109527883E-18   4.55229609272353E-16  -7.97069989063929E-16   0.00000000000000E+00   6.42320314386095E-09
      0.00000000000000E+00   0.00000000000000E+00  -1.60580058035845E-10   0.00000000000000E+00  -1.60580058035845E-10
      3.73648146955260E-16   5.00000000000000E-02   4.99999935767733E-02   0.00000000000000E+00   0.00000000000000E+00
      1.60580723318264E-10   0.00000000000000E+00   1.60580723318264E-10   3.99673647188515E-16   2.83333333333333E-01
      2.83333333333333E-01   0.00000000000000E+00   0.00000000000000E+00   0.00000000000000E+00   0.00000000000000E+00
      0.00000000000000E+00   2.37481949201540E-17
      3.66666666666667E-01
      0.00000000000000E+00   0.00000000000000E+00   0.00000000000000E+00   0.00000000000000E+00   6.89293828919764E-16
     -5.21305313553026E-18   6.84080775784234E-16  -7.97212283365061E-16   0.00000000000000E+00   1.46119592287379E-08
      0.00000000000000E+00   0.00000000000000E+00  -3.65298984121557E-10   0.00000000000000E+00  -3.65298984121557E-10
      3.69412769014136E-16   5.00000000000000E-02   4.99999853880174E-02   0.00000000000000E+00   0.00000000000000E+00
      3.65299626584264E-10   0.00000000000000E+00   3.65299626584264E-10   3.95489347473751E-16   3.11666666666667E-01
      3.11666666666667E-01   0.00000000000000E+00   0.00000000000000E+00   0.00000000000000E+00   0.00000000000000E+00
      0.00000000000000E+00   3.23101668771732E-17
      4.00000000000000E-01
      0.00000000000000E+00   0.00000000000000E+00   0.00000000000000E+00   0.00000000000000E+00   9.88048178018342E-16
     -5.29364761654884E-18   9.82754530401794E-16  -7.97356500821333E-16   0.00000000000000E+00   3.32295952870020E-08
      0.00000000000000E+00   0.00000000000000E+00  -8.30739854142231E-10   0.00000000000000E+00  -8.30739854142231E-10
      3.65166739578439E-16   5.00000000000000E-02   4.99999667703815E-02   0.00000000000000E+00   0.00000000000000E+00
      8.30740419267662E-10   0.00000000000000E+00   8.30740419267662E-10   3.91293496278535E-16   3.40000000000000E-01
      3.40000000000000E-01   0.00000000000000E+00   0.00000000000000E+00   0.00000000000000E+00   0.00000000000000E+00
      0.00000000000000E+00   4.08962649643611E-17
      4.33333333333333E-01
      0.00000000000000E+00   0.00000000000000E+00   0.00000000000000E+00   0.00000000000000E+00   1.34584733577246E-15
     -5.37850096378337E-18   1.34046883480868E-15  -7.97503669736089E-16   0.00000000000000E+00   7.54716816542446E-08
      0.00000000000000E+00   0.00000000000000E+00  -1.88679199906728E-09   0.00000000000000E+00  -1.88679199906728E-09
      3.60910546588775E-16   5.00000000000000E-02   4.99999245282952E-02   0.00000000000000E+00   0.00000000000000E+00
      1.88679259411721E-09   0.00000000000000E+00   1.88679259411721E-09   3.87086414992437E-16   3.68333333333333E-01
      3.68333333333333E-01   0.00000000000000E+00   0.00000000000000E+00   0.00000000000000E+00   0.00000000000000E+00
      0.00000000000000E+00   4.95067081548760E-17
      4.66666666666667E-01
      0.00000000000000E+00   0.00000000000000E+00   0.00000000000000E+00   0.00000000000000E+00   1.72552389288133E-15
     -5.46725149923459E-18   1.72005664138210E-15  -7.97655404613659E-16   0.00000000000000E+00   1.71017348266033E-07
      0.00000000000000E+00   0.00000000000000E+00  -4.27543373914870E-09   0.00000000000000E+00  -4.27543373914870E-09
      3.56644870725299E-16   5.00000000000000E-02   4.99998289826287E-02   0.00000000000000E+00   0.00000000000000E+00
      4.27543422859595E-09   0.00000000000000E+00   4.27543422859595E-09   3.82868476227792E-16   3.96666666666667E-01
      3.96666666666667E-01   0.00000000000000E+00   0.00000000000000E+00   0.00000000000000E+00   0.00000000000000E+00
      0.00000000000000E+00   5.81420576605709E-17
      5.00000000000000E-01
      0.00000000000000E+00   0.00000000000000E+00   0.00000000000000E+00   0.00000000000000E+00   2.10472986529472E-15
     -5.55949057340419E-18   2.09917037472131E-15  -7.97814390347776E-16   0.00000000000000E+00   3.86213177187796E-07
      0.00000000000000E+00   0.00000000000000E+00  -9.65532944878136E-09   0.00000000000000E+00  -9.65532944878136E-09
      3.52370709775179E-16   5.00000000000000E-02   4.99996137867999E-02   0.00000000000000E+00   0.00000000000000E+00
      9.65533003676927E-09   0.00000000000000E+00   9.65533003676927E-09   3.78640152942908E-16   4.25000000000000E-01
      4.25000000000000E-01   0.00000000000000E+00   0.00000000000000E+00   0.00000000000000E+00   0.00000000000000E+00
      0.00000000000000E+00   6.68035276296863E-17
      5.33333333333333E-01
      0.00000000000000E+00   0.00000000000000E+00   0.00000000000000E+00   0.00000000000000E+00   2.45490820015001E-15
     -5.65449901815627E-18   2.44925370113185E-15  -7.97985375340393E-16   0.00000000000000E+00   8.68641946005983E-07
      0.00000000000000E+00   0.00000000000000E+00  -2.17160486482945E-08   0.00000000000000E+00  -2.17160486482945E-08
      3.48089604081157E-16   5.00000000000000E-02   4.99991313580313E-02   0.00000000000000E+00   0.00000000000000E+00
      2.17160492323339E-08   0.00000000000000E+00   2.17160492323339E-08   3.74402098550956E-16   4.53333333333333E-01
      4.53333333333333E-01   0.00000000000000E+00   0.00000000000000E+00   0.00000000000000E+00   0.00000000000000E+00
      0.00000000000000E+00   7.54936727082798E-17
      5.66666666666667E-01
      0.00000000000000E+00   0.00000000000000E+00   0.00000000000000E+00   0.00000000000000E+00   2.71822364928298E-15
     -5.75107935489473E-18   2.71247256992809E-15  -7.98177285988557E-16   0.00000000000000E+00   1.94512712712160E-06
      0.00000000000000E+00   0.00000000000000E+00  -4.86281782244687E-08   0.00000000000000E+00  -4.86281782244687E-08
      3.43804071401323E-16   5.00000000000000E-02   4.99980548728503E-02   0.00000000000000E+00   0.00000000000000E+00
      4.86281787963205E-08   0.00000000000000E+00   4.86281787963205E-08   3.70155292108210E-16   4.81666666666667E-01
      4.81666666666667E-01   0.00000000000000E+00   0.00000000000000E+00   0.00000000000000E+00   0.00000000000000E+00
      0.00000000000000E+00   8.42179224790230E-17
      6.00000000000000E-01
      0.00000000000000E+00   0.00000000000000E+00   0.00000000000000E+00   0.00000000000000E+00   2.68929873820315E-15
     -5.84928941574474E-18   2.68344944878741E-15  -7.98407720364443E-16   0.00000000000000E+00   4.32973570499574E-06
      0.00000000000000E+00   0.00000000000000E+00  -1.08243392663799E-07   0.00000000000000E+00  -1.08243392663799E-07
      3.39518453051726E-16   5.00000000000000E-02   4.99956702642725E-02   0.00000000000000E+00   0.00000000000000E+00
      1.08243393188714E-07   0.00000000000000E+00   1.08243393188714E-07   3.65901324422094E-16   5.10000000000000E-01
      5.10000000000000E-01   0.00000000000000E+00   0.00000000000000E+00   0.00000000000000E+00   0.00000000000000E+00
      0.00000000000000E+00   9.29879428906220E-17
      6.33333333333333E-01
      0.00000000000000E+00   0.00000000000000E+00   0.00000000000000E+00   0.00000000000000E+00   1.41574600242557E-15
     -5.95049979627859E-18   1.40979550262930E-15  -7.98712474364906E-16   0.00000000000000E+00   9.54595678001455E-06
      0.00000000000000E+00   0.00000000000000E+00  -2.38648919549535E-07   0.00000000000000E+00  -2.38648919549535E-07
      3.35240545116156E-16   5.00000000000000E-02   4.99904540431976E-02   0.00000000000000E+00   0.00000000000000E+00
      2.38648920063793E-07   0.00000000000000E+00   2.38648920063793E-07   3.61643007391216E-16   5.38333333333333E-01
      5.38333333333333E-01   0.00000000000000E+00   0.00000000000000E+00   0.00000000000000E+00   0.00000000000000E+00
      0.00000000000000E+00   1.01828921857535E-16
      6.66666666666667E-01
      0.00000000000000E+00   0.00000000000000E+00   0.00000000000000E+00   0.00000000000000E+00  -6.43312253354985E-15
     -6.05547495805324E-18  -6.43917800850791E-15  -7.99165610016934E-16   0.00000000000000E+00   2.07484928928542E-05
      0.00000000000000E+00   0.00000000000000E+00  -5.18712322368463E-07   0.00000000000000E+00  -5.18712322368463E-07
      3.30984663581567E-16   5.00000000000000E-02   4.99792515070849E-02   0.00000000000000E+00   0.00000000000000E+00
      5.18712322847974E-07   0.00000000000000E+00   5.18712322847974E-07   3.57385754967220E-16   5.66666666666667E-01
      5.66666666666667E-01   0.00000000000000E+00   0.00000000000000E+00   0.00000000000000E+00   0.00000000000000E+00
      0.00000000000000E+00   1.10795191468147E-16
      7.00000000000000E-01
      0.00000000000000E+00   0.00000000000000E+00   0.00000000000000E+00   0.00000000000000E+00  -4.84991303057278E-14
     -6.16437985604979E-18  -4.85052946855838E-14  -7.99919078435203E-16   0.00000000000000E+00   4.43599420348569E-05
      0.00000000000000E+00   0.00000000000000E+00  -1.10899855091511E-06   0.00000000000000E+00  -1.10899855091511E-06
      3.26777029467166E-16   5.00000000000000E-02   4.99556400579429E-02   0.00000000000000E+00   0.00000000000000E+00
      1.10899855144057E-06   0.00000000000000E+00   1.10899855144057E-06   3.53140508916005E-16   5.95000000000000E-01
      5.95000000000000E-01   0.00000000000000E+00   0.00000000000000E+00   0.00000000000000E+00   0.00000000000000E+00
      0.00000000000000E+00   1.20001540052034E-16
      7.33333333333333E-01
      0.00000000000000E+00   0.00000000000000E+00   0.00000000000000E+00   0.00000000000000E+00  -2.68956599898977E-13
     -6.27852337083387E-18  -2.68962878422347E-13  -8.01268507656293E-16   0.00000000000000E+00   9.22550663224436E-05
      0.00000000000000E+00   0.00000000000000E+00  -2.30637665818495E-06   0.00000000000000E+00  -2.30637665818495E-06
      3.22663252593306E-16   5.00000000000000E-02   4.99077449336554E-02   0.00000000000000E+00   0.00000000000000E+00
      2.30637665839885E-06   0.00000000000000E+00   2.30637665839885E-06   3.48929371099778E-16   6.23333333333333E-01
      6.23333333333333E-01   0.00000000000000E+00   0.00000000000000E+00   0.00000000000000E+00   0.00000000000000E+00
      0.00000000000000E+00   1.29675883963212E-16
      7.66666666666667E-01
      0.00000000000000E+00   0.00000000000000E+00   0.00000000000000E+00   0.00000000000000E+00  -1.10814368983370E-12
     -6.40355820331637E-18  -1.10815009339191E-12  -8.03710531863073E-16   0.00000000000000E+00   1.80436886989468E-04
      0.00000000000000E+00   0.00000000000000E+00  -4.51092217700368E-06   0.00000000000000E+00  -4.51092217700368E-06
      3.18711076269079E-16   5.00000000000000E-02   4.98195631129883E-02   0.00000000000000E+00   0.00000000000000E+00
      4.51092217228428E-06   0.00000000000000E+00   4.51092217228428E-06   3.44793534062448E-16   6.51666666666667E-01
      6.51666666666667E-01   0.00000000000000E+00   0.00000000000000E+00   0.00000000000000E+00   0.00000000000000E+00
      0.00000000000000E+00   1.40205921531546E-16
      8.00000000000000E-01
      0.00000000000000E+00   0.00000000000000E+00   0.00000000000000E+00   0.00000000000000E+00  -2.11283953974904E-12
     -6.53914425487172E-18  -2.11284607889329E-12  -8.07897530145061E-16   0.00000000000000E+00   3.19895514593671E-04
      0.00000000000000E+00   0.00000000000000E+00  -7.99738787961302E-06   0.00000000000000E+00  -7.99738787961302E-06
      3.14995897735653E-16   5.00000000000000E-02   4.96801044853839E-02   0.00000000000000E+00   0.00000000000000E+00
      7.99738784400636E-06   0.00000000000000E+00   7.99738784400636E-06   3.40797070990430E-16   6.80000000000000E-01
      6.80000000000000E-01   0.00000000000000E+00   0.00000000000000E+00   0.00000000000000E+00   0.00000000000000E+00
      0.00000000000000E+00   1.52104561418980E-16
      8.33333333333333E-01
      0.00000000000000E+00   0.00000000000000E+00   0.00000000000000E+00   0.00000000000000E+00   6.51033670516343E-13
     -6.67321603771478E-18   6.51026997300305E-13  -8.14421335367657E-16   0.00000000000000E+00   5.06158241746657E-04
      0.00000000000000E+00   0.00000000000000E+00  -1.26539560762246E-05   0.00000000000000E+00  -1.26539560762246E-05
      3.11570703500178E-16   5.00000000000000E-02   4.94938417582307E-02   0.00000000000000E+00   0.00000000000000E+00
      1.26539559910335E-05   0.00000000000000E+00   1.26539559910335E-05   3.37013150721698E-16   7.08333333333333E-01
      7.08333333333333E-01   0.00000000000000E+00   0.00000000000000E+00   0.00000000000000E+00   0.00000000000000E+00
      0.00000000000000E+00   1.65837481145780E-16
      8.66666666666667E-01
      0.00000000000000E+00   0.00000000000000E+00   0.00000000000000E+00   0.00000000000000E+00   7.74484317855331E-12
     -6.79274827951336E-18   7.74483638580503E-12  -8.23533898317510E-16   0.00000000000000E+00   7.20038995374584E-04
      0.00000000000000E+00   0.00000000000000E+00  -1.80009749028712E-05   0.00000000000000E+00  -1.80009749028712E-05
      3.08442831813008E-16   5.00000000000000E-02   4.92799610046024E-02   0.00000000000000E+00   0.00000000000000E+00
      1.80009748445242E-05   0.00000000000000E+00   1.80009748445242E-05   3.33492140591671E-16   7.36666666666667E-01
      7.36666666666667E-01   0.00000000000000E+00   0.00000000000000E+00   0.00000000000000E+00   0.00000000000000E+00
      0.00000000000000E+00   1.81598925912833E-16
      9.00000000000000E-01
      0.00000000000000E+00   0.00000000000000E+00   0.00000000000000E+00   0.00000000000000E+00   1.11780771387138E-11
     -6.89148144228501E-18   1.11780702472323E-11  -8.35085523000693E-16   0.00000000000000E+00   9.39145065154247E-04
      0.00000000000000E+00   0.00000000000000E+00  -2.34786266313690E-05   0.00000000000000E+00  -2.34786266313690E-05
      3.05579769499134E-16   5.00000000000000E-02   4.90608549348225E-02   0.00000000000000E+00   0.00000000000000E+00
      2.34786266205959E-05   0.00000000000000E+00   2.34786266205959E-05   3.30242570879794E-16   7.65000000000000E-01
      7.65000000000000E-01   0.00000000000000E+00   0.00000000000000E+00   0.00000000000000E+00   0.00000000000000E+00
      0.00000000000000E+00   1.99263182621764E-16
      9.33333333333333E-01
      0.00000000000000E+00   0.00000000000000E+00   0.00000000000000E+00   0.00000000000000E+00   8.27526110755548E-12
     -6.96944731968341E-18   8.27525413810816E-12  -8.48700186070699E-16   0.00000000000000E+00   1.14737450214766E-03
      0.00000000000000E+00   0.00000000000000E+00  -2.86843625579943E-05   0.00000000000000E+00  -2.86843625579943E-05
      3.02932616700734E-16   5.00000000000000E-02   4.88526254978288E-02   0.00000000000000E+00   0.00000000000000E+00
      2.86843625526268E-05   0.00000000000000E+00   2.86843625526268E-05   3.27240380565587E-16   7.93333333333333E-01
      7.93333333333333E-01   0.00000000000000E+00   0.00000000000000E+00   0.00000000000000E+00   0.00000000000000E+00
      0.00000000000000E+00   2.18527188804376E-16
      9.66666666666667E-01
      0.00000000000000E+00   0.00000000000000E+00   0.00000000000000E+00   0.00000000000000E+00   4.10970871009318E-12
     -7.02988936793107E-18   4.10970168020381E-12  -8.63962660286330E-16   0.00000000000000E+00   1.33674578524229E-03
      0.00000000000000E+00   0.00000000000000E+00  -3.34186446374349E-05   0.00000000000000E+00  -3.34186446374349E-05
      3.00454324995048E-16   5.00000000000000E-02   4.86632542147339E-02   0.00000000000000E+00   0.00000000000000E+00
      3.34186446285884E-05   0.00000000000000E+00   3.34186446285884E-05   3.24447834108857E-16   8.21666666666667E-01
      8.21666666666667E-01   0.00000000000000E+00   0.00000000000000E+00   0.00000000000000E+00   0.00000000000000E+00
      0.00000000000000E+00   2.39060501182427E-16
      1.00000000000000E+00
      0.00000000000000E+00   0.00000000000000E+00   0.00000000000000E+00   0.00000000000000E+00   1.57041393889957E-12
     -7.07662824362051E-18   1.57040686227132E-12  -8.80513646542662E-16   0.00000000000000E+00   1.50483769931297E-03
      0.00000000000000E+00   0.00000000000000E+00  -3.76209424877433E-05   0.00000000000000E+00  -3.76209424877433E-05
      2.98106805962592E-16   5.00000000000000E-02   4.84951623006630E-02   0.00000000000000E+00   0.00000000000000E+00
      3.76209424803308E-05   0.00000000000000E+00   3.76209424803308E-05   3.21826902471655E-16   8.50000000000000E-01
      8.50000000000000E-01   0.00000000000000E+00   0.00000000000000E+00   0.00000000000000E+00   0.00000000000000E+00
      0.00000000000000E+00   2.60579938108413E-16
}
