DF-ISE text

Info {
  version   = 1.0
  type      = xyplot
  datasets  = [
    "time"
    "Substrate OuterVoltage" "Substrate InnerVoltage" "Substrate QuasiFermiPotential" "Substrate DisplacementCurrent" "Substrate eCurrent"
    "Substrate hCurrent" "Substrate TotalCurrent" "Substrate Charge" "source OuterVoltage" "source InnerVoltage"
    "source QuasiFermiPotential" "source DisplacementCurrent" "source eCurrent" "source hCurrent" "source TotalCurrent"
    "source Charge" "drain OuterVoltage" "drain InnerVoltage" "drain QuasiFermiPotential" "drain DisplacementCurrent"
    "drain eCurrent" "drain hCurrent" "drain TotalCurrent" "drain Charge" "gate OuterVoltage"
    "gate InnerVoltage" "gate QuasiFermiPotential" "gate DisplacementCurrent" "gate eCurrent" "gate hCurrent"
    "gate TotalCurrent" "gate Charge" ]
  functions = [
    Time
    OuterVoltage InnerVoltage QuasiFermiPotential DisplacementCurrent eCurrent
    hCurrent TotalCurrent Charge OuterVoltage InnerVoltage
    QuasiFermiPotential DisplacementCurrent eCurrent hCurrent TotalCurrent
    Charge OuterVoltage InnerVoltage QuasiFermiPotential DisplacementCurrent
    eCurrent hCurrent TotalCurrent Charge OuterVoltage
    InnerVoltage QuasiFermiPotential DisplacementCurrent eCurrent hCurrent
    TotalCurrent Charge ]
}

Data {
      0.00000000000000E+00
      0.00000000000000E+00   0.00000000000000E+00   0.00000000000000E+00   0.00000000000000E+00  -9.50471458413459E-18
     -2.07627562746827E-09  -2.07627563697298E-09  -8.06220047993538E-16   0.00000000000000E+00   4.21005729290602E-09
      0.00000000000000E+00   0.00000000000000E+00  -4.21005729193702E-10   0.00000000000000E+00  -4.21005729193702E-10
      3.89921269649889E-16   8.50000000000000E-01   8.49999706716735E-01   0.00000000000000E+00   0.00000000000000E+00
      2.93283265136162E-08   0.00000000000000E+00   2.93283265136162E-08   5.98941154196686E-16   0.00000000000000E+00
      0.00000000000000E+00   0.00000000000000E+00   0.00000000000000E+00   0.00000000000000E+00   0.00000000000000E+00
      0.00000000000000E+00  -1.82642375853036E-16
      3.33333333333333E-02
      0.00000000000000E+00   0.00000000000000E+00   0.00000000000000E+00   0.00000000000000E+00  -1.30710612858553E-14
     -1.74425084094990E-09  -1.74426391201118E-09  -8.06331516248057E-16   0.00000000000000E+00   4.73414336997923E-09
      0.00000000000000E+00   0.00000000000000E+00  -4.73414430664897E-10   0.00000000000000E+00  -4.73414430664897E-10
      3.85715102400020E-16   8.50000000000000E-01   8.49999747806052E-01   0.00000000000000E+00   0.00000000000000E+00
      2.52193946845811E-08   0.00000000000000E+00   2.52193946845811E-08   5.95268071881595E-16   2.83333333333333E-02
      2.83333333333333E-02   0.00000000000000E+00   0.00000000000000E+00   0.00000000000000E+00   0.00000000000000E+00
      0.00000000000000E+00  -1.74651658033560E-16
      6.66666666666667E-02
      0.00000000000000E+00   0.00000000000000E+00   0.00000000000000E+00   0.00000000000000E+00  -1.26571983890424E-13
     -1.45946938000398E-09  -1.45959595198787E-09  -8.06443054278887E-16   0.00000000000000E+00   5.33561308627814E-09
      0.00000000000000E+00   0.00000000000000E+00  -5.33561787347808E-10   0.00000000000000E+00  -5.33561787347808E-10
      3.81495563987349E-16   8.50000000000000E-01   8.49999785681523E-01   0.00000000000000E+00   0.00000000000000E+00
      2.14318467124429E-08   0.00000000000000E+00   2.14318467124429E-08   5.91584956846261E-16   5.66666666666667E-02
      5.66666666666667E-02   0.00000000000000E+00   0.00000000000000E+00   0.00000000000000E+00   0.00000000000000E+00
      0.00000000000000E+00  -1.66637466554723E-16
      1.00000000000000E-01
      0.00000000000000E+00   0.00000000000000E+00   0.00000000000000E+00   0.00000000000000E+00  -9.39358557310335E-18
     -1.21524381576114E-09  -1.21524382515473E-09  -8.06554764714074E-16   0.00000000000000E+00   6.04270256309039E-09
      0.00000000000000E+00   0.00000000000000E+00  -6.04270280635813E-10   0.00000000000000E+00  -6.04270280635813E-10
      3.77262989673330E-16   8.50000000000000E-01   8.49999820718122E-01   0.00000000000000E+00   0.00000000000000E+00
      1.79281877634239E-08   0.00000000000000E+00   1.79281877634239E-08   5.87891435110477E-16   8.50000000000000E-02
      8.50000000000000E-02   0.00000000000000E+00   0.00000000000000E+00   0.00000000000000E+00   0.00000000000000E+00
      0.00000000000000E+00  -1.58599660069733E-16
      1.33333333333333E-01
      0.00000000000000E+00   0.00000000000000E+00   0.00000000000000E+00   0.00000000000000E+00  -1.01390068189963E-17
     -1.00630508110124E-09  -1.00630509124024E-09  -8.06666778245848E-16   0.00000000000000E+00   6.90904455093924E-09
      0.00000000000000E+00   0.00000000000000E+00  -6.90904365094245E-10   0.00000000000000E+00  -6.90904365094245E-10
      3.73017775580364E-16   8.50000000000000E-01   8.49999852026192E-01   0.00000000000000E+00   0.00000000000000E+00
      1.47973807664664E-08   0.00000000000000E+00   1.47973807664664E-08   5.84187152700248E-16   1.13333333333333E-01
      1.13333333333333E-01   0.00000000000000E+00   0.00000000000000E+00   0.00000000000000E+00   0.00000000000000E+00
      0.00000000000000E+00  -1.50538150034763E-16
      1.66666666666667E-01
      0.00000000000000E+00   0.00000000000000E+00   0.00000000000000E+00   0.00000000000000E+00   1.08374970974800E-15
     -8.29352763188078E-10  -8.29351679438368E-10  -8.06779262647272E-16   0.00000000000000E+00   8.04073665975064E-09
      0.00000000000000E+00   0.00000000000000E+00  -8.04073628460007E-10   0.00000000000000E+00  -8.04073628460007E-10
      3.68760352678084E-16   8.50000000000000E-01   8.49999878295596E-01   0.00000000000000E+00   0.00000000000000E+00
      1.21704404091765E-08   0.00000000000000E+00   1.21704404091765E-08   5.80471787341724E-16   1.41666666666667E-01
      1.41666666666667E-01   0.00000000000000E+00   0.00000000000000E+00   0.00000000000000E+00   0.00000000000000E+00
      0.00000000000000E+00  -1.42452877372537E-16
      2.00000000000000E-01
      0.00000000000000E+00   0.00000000000000E+00   0.00000000000000E+00   0.00000000000000E+00   1.12565192250193E-15
     -6.81066584974474E-10  -6.81065459322551E-10  -8.06892435276418E-16   0.00000000000000E+00   9.64305104658868E-09
      0.00000000000000E+00   0.00000000000000E+00  -9.64305079721123E-10   0.00000000000000E+00  -9.64305079721123E-10
      3.64491170495639E-16   8.50000000000000E-01   8.49999899569842E-01   0.00000000000000E+00   0.00000000000000E+00
      1.00430157849926E-08   0.00000000000000E+00   1.00430157849926E-08   5.76745060022200E-16   1.70000000000000E-01
      1.70000000000000E-01   0.00000000000000E+00   0.00000000000000E+00   0.00000000000000E+00   0.00000000000000E+00
      0.00000000000000E+00  -1.34343795241424E-16
      2.33333333333333E-01
      0.00000000000000E+00   0.00000000000000E+00   0.00000000000000E+00   0.00000000000000E+00   1.08640544241280E-15
     -5.57303900057229E-10  -5.57302813651786E-10  -8.07006580498928E-16   0.00000000000000E+00   1.21562032346103E-08
      0.00000000000000E+00   0.00000000000000E+00  -1.21562030285448E-09   0.00000000000000E+00  -1.21562030285448E-09
      3.60210693937344E-16   8.50000000000000E-01   8.49999917357235E-01   0.00000000000000E+00   0.00000000000000E+00
      8.26427654162831E-09   0.00000000000000E+00   8.26427654162831E-09   5.73006736309165E-16   1.98333333333333E-01
      1.98333333333333E-01   0.00000000000000E+00   0.00000000000000E+00   0.00000000000000E+00   0.00000000000000E+00
      0.00000000000000E+00  -1.26210849747582E-16
      2.66666666666667E-01
      0.00000000000000E+00   0.00000000000000E+00   0.00000000000000E+00   0.00000000000000E+00   1.61301652594085E-15
     -4.54155344489152E-10  -4.54153731472626E-10  -8.07122074277896E-16   0.00000000000000E+00   1.65161046752501E-08
      0.00000000000000E+00   0.00000000000000E+00  -1.65161042843077E-09   0.00000000000000E+00  -1.65161042843077E-09
      3.55919415685312E-16   8.50000000000000E-01   8.49999931527992E-01   0.00000000000000E+00   0.00000000000000E+00
      6.84720078049615E-09   0.00000000000000E+00   6.84720078049615E-09   5.69256612634164E-16   2.26666666666667E-01
      2.26666666666667E-01   0.00000000000000E+00   0.00000000000000E+00   0.00000000000000E+00   0.00000000000000E+00
      0.00000000000000E+00  -1.18053954041580E-16
      3.00000000000000E-01
      0.00000000000000E+00   0.00000000000000E+00   0.00000000000000E+00   0.00000000000000E+00   2.30134240900762E-15
     -3.68332378022128E-10  -3.68330076679719E-10  -8.07239420238956E-16   0.00000000000000E+00   2.47038841633777E-08
      0.00000000000000E+00   0.00000000000000E+00  -2.47038843711207E-09   0.00000000000000E+00  -2.47038843711207E-09
      3.51617883302281E-16   8.50000000000000E-01   8.49999937908708E-01   0.00000000000000E+00   0.00000000000000E+00
      6.20912922051321E-09   0.00000000000000E+00   6.20912922051321E-09   5.65494505280587E-16   2.55000000000000E-01
      2.55000000000000E-01   0.00000000000000E+00   0.00000000000000E+00   0.00000000000000E+00   0.00000000000000E+00
      0.00000000000000E+00  -1.09872968343913E-16
      3.33333333333333E-01
      0.00000000000000E+00   0.00000000000000E+00   0.00000000000000E+00   0.00000000000000E+00   3.12838684831086E-15
     -2.97066098820957E-10  -2.97062970434109E-10  -8.07359304628917E-16   0.00000000000000E+00   4.09527753987587E-08
      0.00000000000000E+00   0.00000000000000E+00  -4.09527755183636E-09   0.00000000000000E+00  -4.09527755183636E-09
      3.47306740953823E-16   8.50000000000000E-01   8.49999930083630E-01   0.00000000000000E+00   0.00000000000000E+00
      6.99163688059262E-09   0.00000000000000E+00   6.99163688059262E-09   5.61720257582542E-16   2.83333333333333E-01
      2.83333333333333E-01   0.00000000000000E+00   0.00000000000000E+00   0.00000000000000E+00   0.00000000000000E+00
      0.00000000000000E+00  -1.01667693907448E-16
      3.66666666666667E-01
      0.00000000000000E+00   0.00000000000000E+00   0.00000000000000E+00   0.00000000000000E+00   3.83155212130292E-15
     -2.38007062187751E-10  -2.38003230635630E-10  -8.07482681987524E-16   0.00000000000000E+00   7.43365334342436E-08
      0.00000000000000E+00   0.00000000000000E+00  -7.43365339484826E-09   0.00000000000000E+00  -7.43365339484826E-09
      3.42986791271113E-16   8.50000000000000E-01   8.49999900551642E-01   0.00000000000000E+00   0.00000000000000E+00
      9.94483583033311E-09   0.00000000000000E+00   9.94483583033311E-09   5.57933746511054E-16   3.11666666666667E-01
      3.11666666666667E-01   0.00000000000000E+00   0.00000000000000E+00   0.00000000000000E+00   0.00000000000000E+00
      0.00000000000000E+00  -9.34378557946423E-17
      4.00000000000000E-01
      0.00000000000000E+00   0.00000000000000E+00   0.00000000000000E+00   0.00000000000000E+00   4.28958580011323E-15
     -1.89302352125150E-10  -1.89298062539350E-10  -8.07610912869875E-16   0.00000000000000E+00   1.44130383815878E-07
      0.00000000000000E+00   0.00000000000000E+00  -1.44130384056058E-08   0.00000000000000E+00  -1.44130384056058E-08
      3.38659088135706E-16   8.50000000000000E-01   8.49999832589224E-01   0.00000000000000E+00   0.00000000000000E+00
      1.67410776278068E-08   0.00000000000000E+00   1.67410776278068E-08   5.54134856520074E-16   3.40000000000000E-01
      3.40000000000000E-01   0.00000000000000E+00   0.00000000000000E+00   0.00000000000000E+00   0.00000000000000E+00
      0.00000000000000E+00  -8.51830317859043E-17
      4.33333333333333E-01
      0.00000000000000E+00   0.00000000000000E+00   0.00000000000000E+00   0.00000000000000E+00   4.06705270158917E-15
     -1.49415234788507E-10  -1.49411167735806E-10  -8.07745997217711E-16   0.00000000000000E+00   2.91227843816354E-07
      0.00000000000000E+00   0.00000000000000E+00  -2.91227843739689E-08   0.00000000000000E+00  -2.91227843739689E-08
      3.34325074508099E-16   8.50000000000000E-01   8.49999686895907E-01   0.00000000000000E+00   0.00000000000000E+00
      3.13104093036243E-08   0.00000000000000E+00   3.13104093036243E-08   5.50323441648289E-16   3.68333333333333E-01
      3.68333333333333E-01   0.00000000000000E+00   0.00000000000000E+00   0.00000000000000E+00   0.00000000000000E+00
      0.00000000000000E+00  -7.69025189386765E-17
      4.66666666666667E-01
      0.00000000000000E+00   0.00000000000000E+00   0.00000000000000E+00   0.00000000000000E+00   2.82367542053412E-15
     -1.16997737043593E-10  -1.16994913368172E-10  -8.07890976252010E-16   0.00000000000000E+00   6.01909115493087E-07
      0.00000000000000E+00   0.00000000000000E+00  -6.01909115632870E-08   0.00000000000000E+00  -6.01909115632870E-08
      3.29986796988226E-16   8.50000000000000E-01   8.49999377924721E-01   0.00000000000000E+00   0.00000000000000E+00
      6.22075278662999E-08   0.00000000000000E+00   6.22075278662999E-08   5.46499260980755E-16   3.96666666666667E-01
      3.96666666666667E-01   0.00000000000000E+00   0.00000000000000E+00   0.00000000000000E+00   0.00000000000000E+00
      0.00000000000000E+00  -6.85950817169700E-17
      5.00000000000000E-01
      0.00000000000000E+00   0.00000000000000E+00   0.00000000000000E+00   0.00000000000000E+00  -2.72798325721648E-17
     -9.08711709706873E-11  -9.08711982505199E-11  -8.08050646923956E-16   0.00000000000000E+00   1.25633156203648E-06
      0.00000000000000E+00   0.00000000000000E+00  -1.25633156205546E-07   0.00000000000000E+00  -1.25633156205546E-07
      3.25647259815340E-16   8.50000000000000E-01   8.49998725612306E-01   0.00000000000000E+00   0.00000000000000E+00
      1.27438769335413E-07   0.00000000000000E+00   1.27438769335413E-07   5.42661844692249E-16   4.25000000000000E-01
      4.25000000000000E-01   0.00000000000000E+00   0.00000000000000E+00   0.00000000000000E+00   0.00000000000000E+00
      0.00000000000000E+00  -6.02584575836305E-17
      5.33333333333333E-01
      0.00000000000000E+00   0.00000000000000E+00   0.00000000000000E+00   0.00000000000000E+00  -5.80098081188238E-15
     -6.99899306743275E-11  -6.99957316551393E-11  -8.08232866442787E-16   0.00000000000000E+00   2.62886183772220E-06
      0.00000000000000E+00   0.00000000000000E+00  -2.62886183831469E-07   0.00000000000000E+00  -2.62886183831469E-07
      3.21311039684944E-16   8.50000000000000E-01   8.49997355441127E-01   0.00000000000000E+00   0.00000000000000E+00
      2.64455887488442E-07   0.00000000000000E+00   2.64455887488442E-07   5.38810209528887E-16   4.53333333333333E-01
      4.53333333333333E-01   0.00000000000000E+00   0.00000000000000E+00   0.00000000000000E+00   0.00000000000000E+00
      0.00000000000000E+00  -5.18883827710439E-17
      5.66666666666667E-01
      0.00000000000000E+00   0.00000000000000E+00   0.00000000000000E+00   0.00000000000000E+00  -1.77152388967071E-14
     -5.34362904035747E-11  -5.34540056424715E-11  -8.08450751454277E-16   0.00000000000000E+00   5.48007730359381E-06
      0.00000000000000E+00   0.00000000000000E+00  -5.48007730360345E-07   0.00000000000000E+00  -5.48007730360345E-07
      3.16985307998981E-16   8.50000000000000E-01   8.49994506622208E-01   0.00000000000000E+00   0.00000000000000E+00
      5.49337779239485E-07   0.00000000000000E+00   5.49337779239485E-07   5.34942301325113E-16   4.81666666666667E-01
      4.81666666666667E-01   0.00000000000000E+00   0.00000000000000E+00   0.00000000000000E+00   0.00000000000000E+00
      0.00000000000000E+00  -4.34768578698147E-17
      6.00000000000000E-01
      0.00000000000000E+00   0.00000000000000E+00   0.00000000000000E+00   0.00000000000000E+00  -4.90866584790153E-14
     -4.03826575665552E-11  -4.04317442250343E-11  -8.08726359031103E-16   0.00000000000000E+00   1.12964292030619E-05
      0.00000000000000E+00   0.00000000000000E+00  -1.12964292030899E-06   0.00000000000000E+00  -1.12964292030899E-06
      3.12681433791475E-16   8.50000000000000E-01   8.49988692558224E-01   0.00000000000000E+00   0.00000000000000E+00
      1.13074417757834E-06   0.00000000000000E+00   1.13074417757834E-06   5.31054043222039E-16   5.10000000000000E-01
      5.10000000000000E-01   0.00000000000000E+00   0.00000000000000E+00   0.00000000000000E+00   0.00000000000000E+00
      0.00000000000000E+00  -3.50091179824122E-17
      6.33333333333333E-01
      0.00000000000000E+00   0.00000000000000E+00   0.00000000000000E+00   0.00000000000000E+00  -1.34558896680095E-13
     -3.01097469758453E-11  -3.02443058725254E-11  -8.09095757382670E-16   0.00000000000000E+00   2.28387726396632E-05
      0.00000000000000E+00   0.00000000000000E+00  -2.28387726390470E-06   0.00000000000000E+00  -2.28387726390470E-06
      3.08417191930443E-16   8.50000000000000E-01   8.49977152318873E-01   0.00000000000000E+00   0.00000000000000E+00
      2.28476811265326E-06   0.00000000000000E+00   2.28476811265326E-06   5.27137770336156E-16   5.38333333333333E-01
      5.38333333333333E-01   0.00000000000000E+00   0.00000000000000E+00   0.00000000000000E+00   0.00000000000000E+00
      0.00000000000000E+00  -2.64592048839261E-17
      6.66666666666667E-01
      0.00000000000000E+00   0.00000000000000E+00   0.00000000000000E+00   0.00000000000000E+00  -3.53492080337092E-13
     -2.20555466880268E-11  -2.24090387683639E-11  -8.09614968983150E-16   0.00000000000000E+00   4.48866309402979E-05
      0.00000000000000E+00   0.00000000000000E+00  -4.48866309402354E-06   0.00000000000000E+00  -4.48866309402354E-06
      3.04219124590938E-16   8.50000000000000E-01   8.49955106345611E-01   0.00000000000000E+00   0.00000000000000E+00
      4.48936543886583E-06   0.00000000000000E+00   4.48936543886583E-06   5.23180273848056E-16   5.66666666666667E-01
      5.66666666666667E-01   0.00000000000000E+00   0.00000000000000E+00   0.00000000000000E+00   0.00000000000000E+00
      0.00000000000000E+00  -1.77844294558455E-17
      7.00000000000000E-01
      0.00000000000000E+00   0.00000000000000E+00   0.00000000000000E+00   0.00000000000000E+00  -7.51436907258326E-13
     -1.57748576594130E-11  -1.65262945666713E-11  -8.10361587226797E-16   0.00000000000000E+00   8.51301822189081E-05
      0.00000000000000E+00   0.00000000000000E+00  -8.51301822271521E-06   0.00000000000000E+00  -8.51301822271521E-06
      3.00123670209725E-16   8.50000000000000E-01   8.49914864443406E-01   0.00000000000000E+00   0.00000000000000E+00
      8.51355565798121E-06   0.00000000000000E+00   8.51355565798121E-06   5.19160311093114E-16   5.95000000000000E-01
      5.95000000000000E-01   0.00000000000000E+00   0.00000000000000E+00   0.00000000000000E+00   0.00000000000000E+00
      0.00000000000000E+00  -8.92239407604103E-18
      7.33333333333333E-01
      0.00000000000000E+00   0.00000000000000E+00   0.00000000000000E+00   0.00000000000000E+00  -5.57960160651336E-13
     -1.09164287755574E-11  -1.14743889362087E-11  -8.11424171218131E-16   0.00000000000000E+00   1.54952913687122E-04
      0.00000000000000E+00   0.00000000000000E+00  -1.54952913812055E-05   0.00000000000000E+00  -1.54952913812055E-05
      2.96174686973624E-16   8.50000000000000E-01   8.49845043131427E-01   0.00000000000000E+00   0.00000000000000E+00
      1.54956868386437E-05   0.00000000000000E+00   1.54956868386437E-05   5.15046422547199E-16   6.23333333333333E-01
      6.23333333333333E-01   0.00000000000000E+00   0.00000000000000E+00   0.00000000000000E+00   0.00000000000000E+00
      0.00000000000000E+00   2.03061697307017E-19
      7.66666666666667E-01
      0.00000000000000E+00   0.00000000000000E+00   0.00000000000000E+00   0.00000000000000E+00   3.28789522020649E-12
     -7.23111061435023E-12  -3.94321539414374E-12  -8.12875516270311E-16   0.00000000000000E+00   2.66637776525278E-04
      0.00000000000000E+00   0.00000000000000E+00  -2.66637777163808E-05   0.00000000000000E+00  -2.66637777163808E-05
      2.92410208414087E-16   8.50000000000000E-01   8.49733359457460E-01   0.00000000000000E+00   0.00000000000000E+00
      2.66640541638001E-05   0.00000000000000E+00   2.66640541638001E-05   5.10806257145211E-16   6.51666666666667E-01
      6.51666666666667E-01   0.00000000000000E+00   0.00000000000000E+00   0.00000000000000E+00   0.00000000000000E+00
      0.00000000000000E+00   9.65905071101154E-18
      8.00000000000000E-01
      0.00000000000000E+00   0.00000000000000E+00   0.00000000000000E+00   0.00000000000000E+00   8.60283137401825E-12
     -4.55479545537618E-12   4.04803591864207E-12  -8.14754766277691E-16   0.00000000000000E+00   4.27328384329093E-04
      0.00000000000000E+00   0.00000000000000E+00  -4.27328385704949E-05   0.00000000000000E+00  -4.27328385704949E-05
      2.88846335361488E-16   8.50000000000000E-01   8.49572669788906E-01   0.00000000000000E+00   0.00000000000000E+00
      4.27330209332865E-05   0.00000000000000E+00   4.27330209332865E-05   5.06426612124479E-16   6.80000000000000E-01
      6.80000000000000E-01   0.00000000000000E+00   0.00000000000000E+00   0.00000000000000E+00   0.00000000000000E+00
      0.00000000000000E+00   1.94818187917252E-17
      8.33333333333333E-01
      0.00000000000000E+00   0.00000000000000E+00   0.00000000000000E+00   0.00000000000000E+00   9.57934239659837E-12
     -2.72537839532686E-12   6.85396400127151E-12  -8.17065350487013E-16   0.00000000000000E+00   6.37892275179739E-04
      0.00000000000000E+00   0.00000000000000E+00  -6.37892278770460E-05   0.00000000000000E+00  -6.37892278770460E-05
      2.85476813689217E-16   8.50000000000000E-01   8.49362106583598E-01   0.00000000000000E+00   0.00000000000000E+00
      6.37893414464062E-05   0.00000000000000E+00   6.37893414464062E-05   5.01914814098073E-16   7.08333333333333E-01
      7.08333333333333E-01   0.00000000000000E+00   0.00000000000000E+00   0.00000000000000E+00   0.00000000000000E+00
      0.00000000000000E+00   2.96737226997225E-17
      8.66666666666667E-01
      0.00000000000000E+00   0.00000000000000E+00   0.00000000000000E+00   0.00000000000000E+00   7.36138295514924E-12
     -1.55288559770947E-12   5.80849735743977E-12  -8.19786872259603E-16   0.00000000000000E+00   8.95030740576358E-04
      0.00000000000000E+00   0.00000000000000E+00  -8.95030741502735E-05   0.00000000000000E+00  -8.95030741502735E-05
      2.82282096456782E-16   8.50000000000000E-01   8.49104968580977E-01   0.00000000000000E+00   0.00000000000000E+00
      8.95031417513421E-05   0.00000000000000E+00   8.95031417513421E-05   4.97289524398846E-16   7.36666666666667E-01
      7.36666666666667E-01   0.00000000000000E+00   0.00000000000000E+00   0.00000000000000E+00   0.00000000000000E+00
      0.00000000000000E+00   4.02152514039736E-17
      9.00000000000000E-01
      0.00000000000000E+00   0.00000000000000E+00   0.00000000000000E+00   0.00000000000000E+00   4.45837877675247E-12
     -8.44547958236663E-13   3.61383081851580E-12  -8.22896261574942E-16   0.00000000000000E+00   1.19337583705793E-03
      0.00000000000000E+00   0.00000000000000E+00  -1.19337583757012E-04   0.00000000000000E+00  -1.19337583757012E-04
      2.79238277020784E-16   8.50000000000000E-01   8.48806623777813E-01   0.00000000000000E+00   0.00000000000000E+00
      1.19337622123290E-04   0.00000000000000E+00   1.19337622123290E-04   4.92574532138977E-16   7.65000000000000E-01
      7.65000000000000E-01   0.00000000000000E+00   0.00000000000000E+00   0.00000000000000E+00   0.00000000000000E+00
      0.00000000000000E+00   5.10834524151830E-17
      9.33333333333333E-01
      0.00000000000000E+00   0.00000000000000E+00   0.00000000000000E+00   0.00000000000000E+00   2.18597853734844E-12
     -4.38964663873030E-13   1.74701387347541E-12  -8.26364117818486E-16   0.00000000000000E+00   1.52720382122660E-03
      0.00000000000000E+00   0.00000000000000E+00  -1.52720382151253E-04   0.00000000000000E+00  -1.52720382151253E-04
      2.76321947459891E-16   8.50000000000000E-01   8.48472795970824E-01   0.00000000000000E+00   0.00000000000000E+00
      1.52720402863115E-04   0.00000000000000E+00   1.52720402863115E-04   4.87790613127912E-16   7.93333333333333E-01
      7.93333333333333E-01   0.00000000000000E+00   0.00000000000000E+00   0.00000000000000E+00   0.00000000000000E+00
      0.00000000000000E+00   6.22515572306801E-17
      9.66666666666667E-01
      0.00000000000000E+00   0.00000000000000E+00   0.00000000000000E+00   0.00000000000000E+00   1.15992821204525E-12
     -2.18485501141818E-13   9.41442710903432E-13  -8.30179939812595E-16   0.00000000000000E+00   1.89074975997032E-03
      0.00000000000000E+00   0.00000000000000E+00  -1.89074976012278E-04   0.00000000000000E+00  -1.89074976012278E-04
      2.73512900935555E-16   8.50000000000000E-01   8.48109250133495E-01   0.00000000000000E+00   0.00000000000000E+00
      1.89074986621213E-04   0.00000000000000E+00   1.89074986621213E-04   4.82960396755054E-16   8.21666666666667E-01
      8.21666666666667E-01   0.00000000000000E+00   0.00000000000000E+00   0.00000000000000E+00   0.00000000000000E+00
      0.00000000000000E+00   7.37066421219880E-17
      1.00000000000000E+00
      0.00000000000000E+00   0.00000000000000E+00   0.00000000000000E+00   0.00000000000000E+00   5.53964736490811E-13
     -1.04131021106930E-13   4.49833715383881E-13  -8.34324160894272E-16   0.00000000000000E+00   2.27910280424378E-03
      0.00000000000000E+00   0.00000000000000E+00  -2.27910280432290E-04   0.00000000000000E+00  -2.27910280432290E-04
      2.70794415013286E-16   8.50000000000000E-01   8.47720897144114E-01   0.00000000000000E+00   0.00000000000000E+00
      2.27910285572891E-04   0.00000000000000E+00   2.27910285572891E-04   4.78099020035191E-16   8.50000000000000E-01
      8.50000000000000E-01   0.00000000000000E+00   0.00000000000000E+00   0.00000000000000E+00   0.00000000000000E+00
      0.00000000000000E+00   8.54307258457955E-17
}
