DF-ISE text

Info {
  version   = 1.0
  type      = xyplot
  datasets  = [
    "time"
    "Substrate OuterVoltage" "Substrate InnerVoltage" "Substrate QuasiFermiPotential" "Substrate DisplacementCurrent" "Substrate eCurrent"
    "Substrate hCurrent" "Substrate TotalCurrent" "Substrate Charge" "source OuterVoltage" "source InnerVoltage"
    "source QuasiFermiPotential" "source DisplacementCurrent" "source eCurrent" "source hCurrent" "source TotalCurrent"
    "source Charge" "drain OuterVoltage" "drain InnerVoltage" "drain QuasiFermiPotential" "drain DisplacementCurrent"
    "drain eCurrent" "drain hCurrent" "drain TotalCurrent" "drain Charge" "gate OuterVoltage"
    "gate InnerVoltage" "gate QuasiFermiPotential" "gate DisplacementCurrent" "gate eCurrent" "gate hCurrent"
    "gate TotalCurrent" "gate Charge" ]
  functions = [
    Time
    OuterVoltage InnerVoltage QuasiFermiPotential DisplacementCurrent eCurrent
    hCurrent TotalCurrent Charge OuterVoltage InnerVoltage
    QuasiFermiPotential DisplacementCurrent eCurrent hCurrent TotalCurrent
    Charge OuterVoltage InnerVoltage QuasiFermiPotential DisplacementCurrent
    eCurrent hCurrent TotalCurrent Charge OuterVoltage
    InnerVoltage QuasiFermiPotential DisplacementCurrent eCurrent hCurrent
    TotalCurrent Charge ]
}

Data {
      0.00000000000000E+00
      0.00000000000000E+00   0.00000000000000E+00   0.00000000000000E+00   0.00000000000000E+00  -1.02274280055939E-17
     -1.80718818441543E-09  -1.80718819464286E-09  -8.06066951684509E-16   0.00000000000000E+00   4.15620792772301E-09
      0.00000000000000E+00   0.00000000000000E+00  -4.15620809016007E-10   0.00000000000000E+00  -4.15620809016007E-10
      3.89580329971100E-16   8.50000000000000E-01   8.49999734381369E-01   0.00000000000000E+00   0.00000000000000E+00
      2.65618631328720E-08   0.00000000000000E+00   2.65618631328720E-08   5.98104591807252E-16   0.00000000000000E+00
      0.00000000000000E+00   0.00000000000000E+00   0.00000000000000E+00   0.00000000000000E+00   0.00000000000000E+00
      0.00000000000000E+00  -1.81617970093838E-16
      3.33333333333333E-02
      0.00000000000000E+00   0.00000000000000E+00   0.00000000000000E+00   0.00000000000000E+00  -1.11683872606673E-14
     -1.51404885376577E-09  -1.51406002215303E-09  -8.06178585630933E-16   0.00000000000000E+00   4.67447225407657E-09
      0.00000000000000E+00   0.00000000000000E+00  -4.67447340629248E-10   0.00000000000000E+00  -4.67447340629248E-10
      3.85386051693640E-16   8.50000000000000E-01   8.49999770469020E-01   0.00000000000000E+00   0.00000000000000E+00
      2.29530978873054E-08   0.00000000000000E+00   2.29530978873054E-08   5.94433184320000E-16   2.83333333333333E-02
      2.83333333333333E-02   0.00000000000000E+00   0.00000000000000E+00   0.00000000000000E+00   0.00000000000000E+00
      0.00000000000000E+00  -1.73640650382706E-16
      6.66666666666667E-02
      0.00000000000000E+00   0.00000000000000E+00   0.00000000000000E+00   0.00000000000000E+00  -1.10312776565188E-13
     -1.26242929334821E-09  -1.26253960612478E-09  -8.06290268560813E-16   0.00000000000000E+00   5.26912765955184E-09
      0.00000000000000E+00   0.00000000000000E+00  -5.26913235950494E-10   0.00000000000000E+00  -5.26913235950494E-10
      3.81178279379340E-16   8.50000000000000E-01   8.49999803950691E-01   0.00000000000000E+00   0.00000000000000E+00
      1.96049300138416E-08   0.00000000000000E+00   1.96049300138416E-08   5.90752120663624E-16   5.66666666666667E-02
      5.66666666666667E-02   0.00000000000000E+00   0.00000000000000E+00   0.00000000000000E+00   0.00000000000000E+00
      0.00000000000000E+00  -1.65640131482151E-16
      1.00000000000000E-01
      0.00000000000000E+00   0.00000000000000E+00   0.00000000000000E+00   0.00000000000000E+00  -9.84996114490138E-18
     -1.04717303118275E-09  -1.04717304103272E-09  -8.06402098892089E-16   0.00000000000000E+00   5.96781922762234E-09
      0.00000000000000E+00   0.00000000000000E+00  -5.96781904898688E-10   0.00000000000000E+00  -5.96781904898688E-10
      3.76957261094720E-16   8.50000000000000E-01   8.49999835366168E-01   0.00000000000000E+00   0.00000000000000E+00
      1.64633831406656E-08   0.00000000000000E+00   1.64633831406656E-08   5.87061217586200E-16   8.50000000000000E-02
      8.50000000000000E-02   0.00000000000000E+00   0.00000000000000E+00   0.00000000000000E+00   0.00000000000000E+00
      0.00000000000000E+00  -1.57616379788832E-16
      1.33333333333333E-01
      0.00000000000000E+00   0.00000000000000E+00   0.00000000000000E+00   0.00000000000000E+00  -1.00430282472046E-17
     -8.64617186244386E-10  -8.64617196287414E-10  -8.06514202032509E-16   0.00000000000000E+00   6.82288842595334E-09
      0.00000000000000E+00   0.00000000000000E+00  -6.82288708243487E-10   0.00000000000000E+00  -6.82288708243487E-10
      3.72723322340293E-16   8.50000000000000E-01   8.49999864196518E-01   0.00000000000000E+00   0.00000000000000E+00
      1.35803481927999E-08   0.00000000000000E+00   1.35803481927999E-08   5.83360332858469E-16   1.13333333333333E-01
      1.13333333333333E-01   0.00000000000000E+00   0.00000000000000E+00   0.00000000000000E+00   0.00000000000000E+00
      0.00000000000000E+00  -1.49569453166251E-16
      1.66666666666667E-01
      0.00000000000000E+00   0.00000000000000E+00   0.00000000000000E+00   0.00000000000000E+00   9.05237910220752E-16
     -7.11238904675714E-10  -7.11237999437804E-10  -8.06626738832857E-16   0.00000000000000E+00   7.93783314865938E-09
      0.00000000000000E+00   0.00000000000000E+00  -7.93783332342174E-10   0.00000000000000E+00  -7.93783332342174E-10
      3.68476840731413E-16   8.50000000000000E-01   8.49999888958529E-01   0.00000000000000E+00   0.00000000000000E+00
      1.11041471409788E-08   0.00000000000000E+00   1.11041471409788E-08   5.79649363914608E-16   1.41666666666667E-01
      1.41666666666667E-01   0.00000000000000E+00   0.00000000000000E+00   0.00000000000000E+00   0.00000000000000E+00
      0.00000000000000E+00  -1.41499465813161E-16
      2.00000000000000E-01
      0.00000000000000E+00   0.00000000000000E+00   0.00000000000000E+00   0.00000000000000E+00   9.44503596628660E-16
     -5.82974557771893E-10  -5.82973613268296E-10  -8.06739917392230E-16   0.00000000000000E+00   9.51236212395018E-09
      0.00000000000000E+00   0.00000000000000E+00  -9.51236204791950E-10   0.00000000000000E+00  -9.51236204791950E-10
      3.64218227363728E-16   8.50000000000000E-01   8.49999908600678E-01   0.00000000000000E+00   0.00000000000000E+00
      9.13993218249713E-09   0.00000000000000E+00   9.13993218249713E-09   5.75928243879524E-16   1.70000000000000E-01
      1.70000000000000E-01   0.00000000000000E+00   0.00000000000000E+00   0.00000000000000E+00   0.00000000000000E+00
      0.00000000000000E+00  -1.33406553851022E-16
      2.33333333333333E-01
      0.00000000000000E+00   0.00000000000000E+00   0.00000000000000E+00   0.00000000000000E+00   9.36275624746553E-16
     -4.76002991404514E-10  -4.76002055128889E-10  -8.06854009722647E-16   0.00000000000000E+00   1.19781510435645E-08
      0.00000000000000E+00   0.00000000000000E+00  -1.19781508072937E-09   0.00000000000000E+00  -1.19781508072937E-09
      3.59947919021881E-16   8.50000000000000E-01   8.49999923703854E-01   0.00000000000000E+00   0.00000000000000E+00
      7.62961462048514E-09   0.00000000000000E+00   7.62961462048514E-09   5.72196930537834E-16   1.98333333333333E-01
      1.98333333333333E-01   0.00000000000000E+00   0.00000000000000E+00   0.00000000000000E+00   0.00000000000000E+00
      0.00000000000000E+00  -1.25290839837070E-16
      2.66666666666667E-01
      0.00000000000000E+00   0.00000000000000E+00   0.00000000000000E+00   0.00000000000000E+00   1.42663632367231E-15
     -3.86964137782199E-10  -3.86962711145876E-10  -8.06969375444294E-16   0.00000000000000E+00   1.62480033040348E-08
      0.00000000000000E+00   0.00000000000000E+00  -1.62480036220568E-09   0.00000000000000E+00  -1.62480036220568E-09
      3.55666385337313E-16   8.50000000000000E-01   8.49999934842629E-01   0.00000000000000E+00   0.00000000000000E+00
      6.51573707362014E-09   0.00000000000000E+00   6.51573707362014E-09   5.68455380563338E-16   2.26666666666667E-01
      2.26666666666667E-01   0.00000000000000E+00   0.00000000000000E+00   0.00000000000000E+00   0.00000000000000E+00
      0.00000000000000E+00  -1.17152390456354E-16
      3.00000000000000E-01
      0.00000000000000E+00   0.00000000000000E+00   0.00000000000000E+00   0.00000000000000E+00   2.10608509455327E-15
     -3.13042872232760E-10  -3.13040766147666E-10  -8.07086496492834E-16   0.00000000000000E+00   2.42602422241780E-08
      0.00000000000000E+00   0.00000000000000E+00  -2.42602420772161E-09   0.00000000000000E+00  -2.42602420772161E-09
      3.51374152179359E-16   8.50000000000000E-01   8.49999939229137E-01   0.00000000000000E+00   0.00000000000000E+00
      6.07708631532056E-09   0.00000000000000E+00   6.07708631532056E-09   5.64703516788546E-16   2.55000000000000E-01
      2.55000000000000E-01   0.00000000000000E+00   0.00000000000000E+00   0.00000000000000E+00   0.00000000000000E+00
      0.00000000000000E+00  -1.08991172475073E-16
      3.33333333333333E-01
      0.00000000000000E+00   0.00000000000000E+00   0.00000000000000E+00   0.00000000000000E+00   2.94228880299245E-15
     -2.51954065922231E-10  -2.51951123633428E-10  -8.07206030493130E-16   0.00000000000000E+00   4.01589050930104E-08
      0.00000000000000E+00   0.00000000000000E+00  -4.01589045857647E-09   0.00000000000000E+00  -4.01589045857647E-09
      3.47071840764591E-16   8.50000000000000E-01   8.49999930937916E-01   0.00000000000000E+00   0.00000000000000E+00
      6.90620837546706E-09   0.00000000000000E+00   6.90620837546706E-09   5.60941213377462E-16   2.83333333333333E-01
      2.83333333333333E-01   0.00000000000000E+00   0.00000000000000E+00   0.00000000000000E+00   0.00000000000000E+00
      0.00000000000000E+00  -1.00807023648925E-16
      3.66666666666667E-01
      0.00000000000000E+00   0.00000000000000E+00   0.00000000000000E+00   0.00000000000000E+00   3.82670887038351E-15
     -2.01647572388607E-10  -2.01643745679736E-10  -8.07328894403651E-16   0.00000000000000E+00   7.28288649021803E-08
      0.00000000000000E+00   0.00000000000000E+00  -7.28288644409894E-09   0.00000000000000E+00  -7.28288644409894E-09
      3.42760227069139E-16   8.50000000000000E-01   8.49999901937799E-01   0.00000000000000E+00   0.00000000000000E+00
      9.80622006988503E-09   0.00000000000000E+00   9.80622006988503E-09   5.57168291243506E-16   3.11666666666667E-01
      3.11666666666667E-01   0.00000000000000E+00   0.00000000000000E+00   0.00000000000000E+00   0.00000000000000E+00
      0.00000000000000E+00  -9.25996239089952E-17
      4.00000000000000E-01
      0.00000000000000E+00   0.00000000000000E+00   0.00000000000000E+00   0.00000000000000E+00   4.54198926325948E-15
     -1.60284782865556E-10  -1.60280240876293E-10  -8.07456399250821E-16   0.00000000000000E+00   1.41142784115875E-07
      0.00000000000000E+00   0.00000000000000E+00  -1.41142784358697E-08   0.00000000000000E+00  -1.41142784358697E-08
      3.38440331902105E-16   8.50000000000000E-01   8.49999835640885E-01   0.00000000000000E+00   0.00000000000000E+00
      1.64359115286666E-08   0.00000000000000E+00   1.64359115286666E-08   5.53384494846776E-16   3.40000000000000E-01
      3.40000000000000E-01   0.00000000000000E+00   0.00000000000000E+00   0.00000000000000E+00   0.00000000000000E+00
      0.00000000000000E+00  -8.43684274980586E-17
      4.33333333333333E-01
      0.00000000000000E+00   0.00000000000000E+00   0.00000000000000E+00   0.00000000000000E+00   4.73724756824755E-15
     -1.26445034000227E-10  -1.26440296752659E-10  -8.07590480020759E-16   0.00000000000000E+00   2.85220543605607E-07
      0.00000000000000E+00   0.00000000000000E+00  -2.85220543927621E-08   0.00000000000000E+00  -2.85220543927621E-08
      3.34113557245453E-16   8.50000000000000E-01   8.49999693414380E-01   0.00000000000000E+00   0.00000000000000E+00
      3.06585619714387E-08   0.00000000000000E+00   3.06585619714387E-08   5.49589457900368E-16   3.68333333333333E-01
      3.68333333333333E-01   0.00000000000000E+00   0.00000000000000E+00   0.00000000000000E+00   0.00000000000000E+00
      0.00000000000000E+00  -7.61125351250639E-17
      4.66666666666667E-01
      0.00000000000000E+00   0.00000000000000E+00   0.00000000000000E+00   0.00000000000000E+00   4.02147882704410E-15
     -9.89800119398677E-11  -9.89759904610406E-11  -8.07734090798283E-16   0.00000000000000E+00   5.89688566050533E-07
      0.00000000000000E+00   0.00000000000000E+00  -5.89688565920995E-08   0.00000000000000E+00  -5.89688565920995E-08
      3.29781898076746E-16   8.50000000000000E-01   8.49999391103725E-01   0.00000000000000E+00   0.00000000000000E+00
      6.08896273808242E-08   0.00000000000000E+00   6.08896273808242E-08   5.45782652001210E-16   3.96666666666667E-01
      3.96666666666667E-01   0.00000000000000E+00   0.00000000000000E+00   0.00000000000000E+00   0.00000000000000E+00
      0.00000000000000E+00  -6.78304592796694E-17
      5.00000000000000E-01
      0.00000000000000E+00   0.00000000000000E+00   0.00000000000000E+00   0.00000000000000E+00   1.84227151970143E-15
     -7.68515480648886E-11  -7.68497057933689E-11  -8.07891911317048E-16   0.00000000000000E+00   1.23161280790687E-06
      0.00000000000000E+00   0.00000000000000E+00  -1.23161280802522E-07   0.00000000000000E+00  -1.23161280802522E-07
      3.25448292061727E-16   8.50000000000000E-01   8.49998751590369E-01   0.00000000000000E+00   0.00000000000000E+00
      1.24840963075433E-07   0.00000000000000E+00   1.24840963075433E-07   5.41963275911094E-16   4.25000000000000E-01
      4.25000000000000E-01   0.00000000000000E+00   0.00000000000000E+00   0.00000000000000E+00   0.00000000000000E+00
      0.00000000000000E+00  -5.95196566557717E-17
      5.33333333333333E-01
      0.00000000000000E+00   0.00000000000000E+00   0.00000000000000E+00   0.00000000000000E+00  -2.89998774217304E-15
     -5.91418366114801E-11  -5.91447365992223E-11  -8.08071630190149E-16   0.00000000000000E+00   2.57921164872325E-06
      0.00000000000000E+00   0.00000000000000E+00  -2.57921164831038E-07   0.00000000000000E+00  -2.57921164831038E-07
      3.21117225248356E-16   8.50000000000000E-01   8.49997406439143E-01   0.00000000000000E+00   0.00000000000000E+00
      2.59356085693474E-07   0.00000000000000E+00   2.59356085693474E-07   5.38130000303399E-16   4.53333333333333E-01
      4.53333333333333E-01   0.00000000000000E+00   0.00000000000000E+00   0.00000000000000E+00   0.00000000000000E+00
      0.00000000000000E+00  -5.11755953616051E-17
      5.66666666666667E-01
      0.00000000000000E+00   0.00000000000000E+00   0.00000000000000E+00   0.00000000000000E+00  -1.35710603823949E-14
     -4.50750507335855E-11  -4.50886217939679E-11  -8.08286122716656E-16   0.00000000000000E+00   5.37995345210015E-06
      0.00000000000000E+00   0.00000000000000E+00  -5.37995345130938E-07   0.00000000000000E+00  -5.37995345130938E-07
      3.16795735253433E-16   8.50000000000000E-01   8.49994608030853E-01   0.00000000000000E+00   0.00000000000000E+00
      5.39196914676164E-07   0.00000000000000E+00   5.39196914676164E-07   5.34280452486843E-16   4.81666666666667E-01
      4.81666666666667E-01   0.00000000000000E+00   0.00000000000000E+00   0.00000000000000E+00   0.00000000000000E+00
      0.00000000000000E+00  -4.27900650236198E-17
      6.00000000000000E-01
      0.00000000000000E+00   0.00000000000000E+00   0.00000000000000E+00   0.00000000000000E+00  -4.14148378349021E-14
     -3.39858596382717E-11  -3.40272744761066E-11  -8.08557052394058E-16   0.00000000000000E+00   1.10939292439001E-05
      0.00000000000000E+00   0.00000000000000E+00  -1.10939292443696E-06   0.00000000000000E+00  -1.10939292443696E-06
      3.12494983944479E-16   8.50000000000000E-01   8.49988896196388E-01   0.00000000000000E+00   0.00000000000000E+00
      1.11038036120009E-06   0.00000000000000E+00   1.11038036120009E-06   5.30410299604666E-16   5.10000000000000E-01
      5.10000000000000E-01   0.00000000000000E+00   0.00000000000000E+00   0.00000000000000E+00   0.00000000000000E+00
      0.00000000000000E+00  -3.43482311550859E-17
      6.33333333333333E-01
      0.00000000000000E+00   0.00000000000000E+00   0.00000000000000E+00   0.00000000000000E+00  -1.20253962487601E-13
     -2.52927186198644E-11  -2.54129725823520E-11  -8.08919935381901E-16   0.00000000000000E+00   2.24327175976143E-05
      0.00000000000000E+00   0.00000000000000E+00  -2.24327175970985E-06   0.00000000000000E+00  -2.24327175970985E-06
      3.08232445895069E-16   8.50000000000000E-01   8.49977559329274E-01   0.00000000000000E+00   0.00000000000000E+00
      2.24406707262301E-06   0.00000000000000E+00   2.24406707262301E-06   5.26511735200124E-16   5.38333333333333E-01
      5.38333333333333E-01   0.00000000000000E+00   0.00000000000000E+00   0.00000000000000E+00   0.00000000000000E+00
      0.00000000000000E+00  -2.58242457132930E-17
      6.66666666666667E-01
      0.00000000000000E+00   0.00000000000000E+00   0.00000000000000E+00   0.00000000000000E+00  -3.21877093080289E-13
     -1.84996751963947E-11  -1.88215522894750E-11  -8.09430009122546E-16   0.00000000000000E+00   4.40918784574027E-05
      0.00000000000000E+00   0.00000000000000E+00  -4.40918784577298E-06   0.00000000000000E+00  -4.40918784577298E-06
      3.04034243562216E-16   8.50000000000000E-01   8.49955901864685E-01   0.00000000000000E+00   0.00000000000000E+00
      4.40981353141139E-06   0.00000000000000E+00   4.40981353141139E-06   5.22571563239827E-16   5.66666666666667E-01
      5.66666666666667E-01   0.00000000000000E+00   0.00000000000000E+00   0.00000000000000E+00   0.00000000000000E+00
      0.00000000000000E+00  -1.71757976794945E-17
      7.00000000000000E-01
      0.00000000000000E+00   0.00000000000000E+00   0.00000000000000E+00   0.00000000000000E+00  -7.05332051627770E-13
     -1.32102359497836E-11  -1.39155680014114E-11  -8.10163960453469E-16   0.00000000000000E+00   8.36252635225364E-05
      0.00000000000000E+00   0.00000000000000E+00  -8.36252635298992E-06   0.00000000000000E+00  -8.36252635298992E-06
      2.99936311186707E-16   8.50000000000000E-01   8.49916369959031E-01   0.00000000000000E+00   0.00000000000000E+00
      8.36300409553333E-06   0.00000000000000E+00   8.36300409553333E-06   5.18568770688157E-16   5.95000000000000E-01
      5.95000000000000E-01   0.00000000000000E+00   0.00000000000000E+00   0.00000000000000E+00   0.00000000000000E+00
      0.00000000000000E+00  -8.34112142139672E-18
      7.33333333333333E-01
      0.00000000000000E+00   0.00000000000000E+00   0.00000000000000E+00   0.00000000000000E+00  -5.47158291072816E-13
     -9.12170024158883E-12  -9.66885853266164E-12  -8.11209731498030E-16   0.00000000000000E+00   1.52219026405334E-04
      0.00000000000000E+00   0.00000000000000E+00  -1.52219026521947E-05   0.00000000000000E+00  -1.52219026521947E-05
      2.95981964042560E-16   8.50000000000000E-01   8.49847777465172E-01   0.00000000000000E+00   0.00000000000000E+00
      1.52222534649139E-05   0.00000000000000E+00   1.52222534649139E-05   5.14472433134452E-16   6.23333333333333E-01
      6.23333333333333E-01   0.00000000000000E+00   0.00000000000000E+00   0.00000000000000E+00   0.00000000000000E+00
      0.00000000000000E+00   7.55334321018689E-19
      7.66666666666667E-01
      0.00000000000000E+00   0.00000000000000E+00   0.00000000000000E+00   0.00000000000000E+00   2.88045334394268E-12
     -6.02283831112636E-12  -3.14238496718369E-12  -8.12640072322794E-16   0.00000000000000E+00   2.62047275797039E-04
      0.00000000000000E+00   0.00000000000000E+00  -2.62047276387583E-05   0.00000000000000E+00  -2.62047276387583E-05
      2.92209144490715E-16   8.50000000000000E-01   8.49737950274333E-01   0.00000000000000E+00   0.00000000000000E+00
      2.62049724796183E-05   0.00000000000000E+00   2.62049724796183E-05   5.10250590226588E-16   6.51666666666667E-01
      6.51666666666667E-01   0.00000000000000E+00   0.00000000000000E+00   0.00000000000000E+00   0.00000000000000E+00
      0.00000000000000E+00   1.01803376054899E-17
      8.00000000000000E-01
      0.00000000000000E+00   0.00000000000000E+00   0.00000000000000E+00   0.00000000000000E+00   7.99880984614695E-12
     -3.77693411516144E-12   4.22187573098552E-12  -8.14495387100156E-16   0.00000000000000E+00   4.20297192880534E-04
      0.00000000000000E+00   0.00000000000000E+00  -4.20297194075994E-05   0.00000000000000E+00  -4.20297194075994E-05
      2.88634437075501E-16   8.50000000000000E-01   8.49579701190539E-01   0.00000000000000E+00   0.00000000000000E+00
      4.20298807738649E-05   0.00000000000000E+00   4.20298807738649E-05   5.05890178949476E-16   6.80000000000000E-01
      6.80000000000000E-01   0.00000000000000E+00   0.00000000000000E+00   0.00000000000000E+00   0.00000000000000E+00
      0.00000000000000E+00   1.99707710751760E-17
      8.33333333333333E-01
      0.00000000000000E+00   0.00000000000000E+00   0.00000000000000E+00   0.00000000000000E+00   8.85387541473607E-12
     -2.24835853063072E-12   6.60551688410535E-12  -8.16780554267423E-16   0.00000000000000E+00   6.27998911537022E-04
      0.00000000000000E+00   0.00000000000000E+00  -6.27998912935668E-05   0.00000000000000E+00  -6.27998912935668E-05
      2.85252379380626E-16   8.50000000000000E-01   8.49372000077008E-01   0.00000000000000E+00   0.00000000000000E+00
      6.27999921066635E-05   0.00000000000000E+00   6.27999921066635E-05   5.01398245854783E-16   7.08333333333333E-01
      7.08333333333333E-01   0.00000000000000E+00   0.00000000000000E+00   0.00000000000000E+00   0.00000000000000E+00
      0.00000000000000E+00   3.01299290320159E-17
      8.66666666666667E-01
      0.00000000000000E+00   0.00000000000000E+00   0.00000000000000E+00   0.00000000000000E+00   6.95826907079220E-12
     -1.27395019733564E-12   5.68431887345655E-12  -8.19476296185357E-16   0.00000000000000E+00   8.81980877262716E-04
      0.00000000000000E+00   0.00000000000000E+00  -8.81980878574194E-05   0.00000000000000E+00  -8.81980878574194E-05
      2.82043842358159E-16   8.50000000000000E-01   8.49118018518324E-01   0.00000000000000E+00   0.00000000000000E+00
      8.81981480160226E-05   0.00000000000000E+00   8.81981480160226E-05   4.96793417011155E-16   7.36666666666667E-01
      7.36666666666667E-01   0.00000000000000E+00   0.00000000000000E+00   0.00000000000000E+00   0.00000000000000E+00
      0.00000000000000E+00   4.06390368160449E-17
      9.00000000000000E-01
      0.00000000000000E+00   0.00000000000000E+00   0.00000000000000E+00   0.00000000000000E+00   4.27413276795906E-12
     -6.89426611634668E-13   3.58470615632440E-12  -8.22559342706804E-16   0.00000000000000E+00   1.17697647080572E-03
      0.00000000000000E+00   0.00000000000000E+00  -1.17697647210910E-04   0.00000000000000E+00  -1.17697647210910E-04
      2.78985411410936E-16   8.50000000000000E-01   8.48823023184208E-01   0.00000000000000E+00   0.00000000000000E+00
      1.17697681482290E-04   0.00000000000000E+00   1.17697681482290E-04   4.92099279573401E-16   7.65000000000000E-01
      7.65000000000000E-01   0.00000000000000E+00   0.00000000000000E+00   0.00000000000000E+00   0.00000000000000E+00
      0.00000000000000E+00   5.14746517224641E-17
      9.33333333333333E-01
      0.00000000000000E+00   0.00000000000000E+00   0.00000000000000E+00   0.00000000000000E+00   2.25892675037696E-12
     -3.57007409441394E-13   1.90191934093556E-12  -8.26000301433069E-16   0.00000000000000E+00   1.50733991769453E-03
      0.00000000000000E+00   0.00000000000000E+00  -1.50733991800095E-04   0.00000000000000E+00  -1.50733991800095E-04
      2.76054153107992E-16   8.50000000000000E-01   8.48492659894476E-01   0.00000000000000E+00   0.00000000000000E+00
      1.50734010499401E-04   0.00000000000000E+00   1.50734010499401E-04   4.87336679465104E-16   7.93333333333333E-01
      7.93333333333333E-01   0.00000000000000E+00   0.00000000000000E+00   0.00000000000000E+00   0.00000000000000E+00
      0.00000000000000E+00   6.26094688599717E-17
      9.66666666666667E-01
      0.00000000000000E+00   0.00000000000000E+00   0.00000000000000E+00   0.00000000000000E+00   1.12858195312456E-12
     -1.77393971750008E-13   9.51187981374547E-13  -8.29790590685482E-16   0.00000000000000E+00   1.86737218007492E-03
      0.00000000000000E+00   0.00000000000000E+00  -1.86737218023282E-04   0.00000000000000E+00  -1.86737218023282E-04
      2.73229975171906E-16   8.50000000000000E-01   8.48132627722551E-01   0.00000000000000E+00   0.00000000000000E+00
      1.86737227715334E-04   0.00000000000000E+00   1.86737227715334E-04   4.82528514119423E-16   8.21666666666667E-01
      8.21666666666667E-01   0.00000000000000E+00   0.00000000000000E+00   0.00000000000000E+00   0.00000000000000E+00
      0.00000000000000E+00   7.40321013941536E-17
      1.00000000000000E+00
      0.00000000000000E+00   0.00000000000000E+00   0.00000000000000E+00   0.00000000000000E+00   5.43765137250748E-13
     -8.45905663536714E-14   4.59174570897077E-13  -8.33909689185007E-16   0.00000000000000E+00   2.25220622266952E-03
      0.00000000000000E+00   0.00000000000000E+00  -2.25220622275103E-04   0.00000000000000E+00  -2.25220622275103E-04
      2.70496217046549E-16   8.50000000000000E-01   8.47747793729362E-01   0.00000000000000E+00   0.00000000000000E+00
      2.25220627048169E-04   0.00000000000000E+00   2.25220627048169E-04   4.77689260924094E-16   8.50000000000000E-01
      8.50000000000000E-01   0.00000000000000E+00   0.00000000000000E+00   0.00000000000000E+00   0.00000000000000E+00
      0.00000000000000E+00   8.57242112143651E-17
}
