DF-ISE text

Info {
  version   = 1.0
  type      = xyplot
  datasets  = [
    "time"
    "Substrate OuterVoltage" "Substrate InnerVoltage" "Substrate QuasiFermiPotential" "Substrate DisplacementCurrent" "Substrate eCurrent"
    "Substrate hCurrent" "Substrate TotalCurrent" "Substrate Charge" "source OuterVoltage" "source InnerVoltage"
    "source QuasiFermiPotential" "source DisplacementCurrent" "source eCurrent" "source hCurrent" "source TotalCurrent"
    "source Charge" "drain OuterVoltage" "drain InnerVoltage" "drain QuasiFermiPotential" "drain DisplacementCurrent"
    "drain eCurrent" "drain hCurrent" "drain TotalCurrent" "drain Charge" "gate OuterVoltage"
    "gate InnerVoltage" "gate QuasiFermiPotential" "gate DisplacementCurrent" "gate eCurrent" "gate hCurrent"
    "gate TotalCurrent" "gate Charge" ]
  functions = [
    Time
    OuterVoltage InnerVoltage QuasiFermiPotential DisplacementCurrent eCurrent
    hCurrent TotalCurrent Charge OuterVoltage InnerVoltage
    QuasiFermiPotential DisplacementCurrent eCurrent hCurrent TotalCurrent
    Charge OuterVoltage InnerVoltage QuasiFermiPotential DisplacementCurrent
    eCurrent hCurrent TotalCurrent Charge OuterVoltage
    InnerVoltage QuasiFermiPotential DisplacementCurrent eCurrent hCurrent
    TotalCurrent Charge ]
}

Data {
      0.00000000000000E+00
      0.00000000000000E+00   0.00000000000000E+00   0.00000000000000E+00   0.00000000000000E+00  -9.99214256144501E-18
     -1.21675786967893E-09  -1.21675787967108E-09  -8.06248687213401E-16   0.00000000000000E+00   4.26523988917319E-09
      0.00000000000000E+00   0.00000000000000E+00  -4.26523985383536E-10   0.00000000000000E+00  -4.26523985383536E-10
      3.89897122412448E-16   8.50000000000000E-01   8.49999721370649E-01   0.00000000000000E+00   0.00000000000000E+00
      2.78629351252390E-08   0.00000000000000E+00   2.78629351252390E-08   5.98811560748341E-16   0.00000000000000E+00
      0.00000000000000E+00   0.00000000000000E+00   0.00000000000000E+00   0.00000000000000E+00   0.00000000000000E+00
      0.00000000000000E+00  -1.82459995947388E-16
      3.33333333333333E-02
      0.00000000000000E+00   0.00000000000000E+00   0.00000000000000E+00   0.00000000000000E+00  -4.07028357992954E-15
     -1.02111840198145E-09  -1.02112247226503E-09  -8.06359605950820E-16   0.00000000000000E+00   4.79437875748283E-09
      0.00000000000000E+00   0.00000000000000E+00  -4.79437945314482E-10   0.00000000000000E+00  -4.79437945314482E-10
      3.85701473424732E-16   8.50000000000000E-01   8.49999760779261E-01   0.00000000000000E+00   0.00000000000000E+00
      2.39220738037978E-08   0.00000000000000E+00   2.39220738037978E-08   5.95147391685287E-16   2.83333333333333E-02
      2.83333333333333E-02   0.00000000000000E+00   0.00000000000000E+00   0.00000000000000E+00   0.00000000000000E+00
      0.00000000000000E+00  -1.74489259159197E-16
      6.66666666666667E-02
      0.00000000000000E+00   0.00000000000000E+00   0.00000000000000E+00   0.00000000000000E+00  -4.09752912764406E-14
     -8.53561544443209E-10  -8.53602519734486E-10  -8.06470524529586E-16   0.00000000000000E+00   5.40194715569473E-09
      0.00000000000000E+00   0.00000000000000E+00  -5.40195257108308E-10   0.00000000000000E+00  -5.40195257108308E-10
      3.81492653551335E-16   8.50000000000000E-01   8.49999797064940E-01   0.00000000000000E+00   0.00000000000000E+00
      2.02935050438801E-08   0.00000000000000E+00   2.02935050438801E-08   5.91473139724413E-16   5.66666666666667E-02
      5.66666666666667E-02   0.00000000000000E+00   0.00000000000000E+00   0.00000000000000E+00   0.00000000000000E+00
      0.00000000000000E+00  -1.66495268746163E-16
      1.00000000000000E-01
      0.00000000000000E+00   0.00000000000000E+00   0.00000000000000E+00   0.00000000000000E+00  -1.00846124139743E-17
     -7.09831552649949E-10  -7.09831562734562E-10  -8.06581517874874E-16   0.00000000000000E+00   6.11700536550542E-09
      0.00000000000000E+00   0.00000000000000E+00  -6.11700400956029E-10   0.00000000000000E+00  -6.11700400956029E-10
      3.77270981588827E-16   8.50000000000000E-01   8.49999830036500E-01   0.00000000000000E+00   0.00000000000000E+00
      1.69963500324266E-08   0.00000000000000E+00   1.69963500324266E-08   5.87788444982640E-16   8.50000000000000E-02
      8.50000000000000E-02   0.00000000000000E+00   0.00000000000000E+00   0.00000000000000E+00   0.00000000000000E+00
      0.00000000000000E+00  -1.58477908696593E-16
      1.33333333333333E-01
      0.00000000000000E+00   0.00000000000000E+00   0.00000000000000E+00   0.00000000000000E+00  -1.00636614358775E-17
     -5.87298687727753E-10  -5.87298697791415E-10  -8.06692679159889E-16   0.00000000000000E+00   6.99478823606652E-09
      0.00000000000000E+00   0.00000000000000E+00  -6.99478716423925E-10   0.00000000000000E+00  -6.99478716423925E-10
      3.73036809307818E-16   8.50000000000000E-01   8.49999858509983E-01   0.00000000000000E+00   0.00000000000000E+00
      1.41490016591179E-08   0.00000000000000E+00   1.41490016591179E-08   5.84092972337298E-16   1.13333333333333E-01
      1.13333333333333E-01   0.00000000000000E+00   0.00000000000000E+00   0.00000000000000E+00   0.00000000000000E+00
      0.00000000000000E+00  -1.50437102485228E-16
      1.66666666666667E-01
      0.00000000000000E+00   0.00000000000000E+00   0.00000000000000E+00   0.00000000000000E+00   2.58491094058466E-16
     -4.85159808609442E-10  -4.85159550118348E-10  -8.06804125823178E-16   0.00000000000000E+00   8.14509413731727E-09
      0.00000000000000E+00   0.00000000000000E+00  -8.14509445056685E-10   0.00000000000000E+00  -8.14509445056685E-10
      3.68790497336527E-16   8.50000000000000E-01   8.49999881424469E-01   0.00000000000000E+00   0.00000000000000E+00
      1.18575531144246E-08   0.00000000000000E+00   1.18575531144246E-08   5.80386422046179E-16   1.41666666666667E-01
      1.41666666666667E-01   0.00000000000000E+00   0.00000000000000E+00   0.00000000000000E+00   0.00000000000000E+00
      0.00000000000000E+00  -1.42372793559530E-16
      2.00000000000000E-01
      0.00000000000000E+00   0.00000000000000E+00   0.00000000000000E+00   0.00000000000000E+00   2.68281026629281E-16
     -4.01966451442895E-10  -4.01966183161868E-10  -8.06916008217696E-16   0.00000000000000E+00   9.78085388808356E-09
      0.00000000000000E+00   0.00000000000000E+00  -9.78085372458063E-10   0.00000000000000E+00  -9.78085372458063E-10
      3.64532401286414E-16   8.50000000000000E-01   8.49999898995039E-01   0.00000000000000E+00   0.00000000000000E+00
      1.01004961223200E-08   0.00000000000000E+00   1.01004961223200E-08   5.76668537125073E-16   1.70000000000000E-01
      1.70000000000000E-01   0.00000000000000E+00   0.00000000000000E+00   0.00000000000000E+00   0.00000000000000E+00
      0.00000000000000E+00  -1.34284930193793E-16
      2.33333333333333E-01
      0.00000000000000E+00   0.00000000000000E+00   0.00000000000000E+00   0.00000000000000E+00   2.57310316078612E-16
     -3.34480702168920E-10  -3.34480444858604E-10  -8.07028522212861E-16   0.00000000000000E+00   1.23535539880890E-08
      0.00000000000000E+00   0.00000000000000E+00  -1.23535544037842E-09   0.00000000000000E+00  -1.23535544037842E-09
      3.60262869760399E-16   8.50000000000000E-01   8.49999912373382E-01   0.00000000000000E+00   0.00000000000000E+00
      8.76266166173327E-09   0.00000000000000E+00   8.76266166173327E-09   5.72939101838744E-16   1.98333333333333E-01
      1.98333333333333E-01   0.00000000000000E+00   0.00000000000000E+00   0.00000000000000E+00   0.00000000000000E+00
      0.00000000000000E+00  -1.26173449386284E-16
      2.66666666666667E-01
      0.00000000000000E+00   0.00000000000000E+00   0.00000000000000E+00   0.00000000000000E+00   3.69501736616820E-16
     -2.78135096877975E-10  -2.78134727376238E-10  -8.07141928024293E-16   0.00000000000000E+00   1.68276058857407E-08
      0.00000000000000E+00   0.00000000000000E+00  -1.68276061895291E-09   0.00000000000000E+00  -1.68276061895291E-09
      3.55982254641570E-16   8.50000000000000E-01   8.49999922391502E-01   0.00000000000000E+00   0.00000000000000E+00
      7.76084976288178E-09   0.00000000000000E+00   7.76084976288178E-09   5.69197935063319E-16   2.26666666666667E-01
      2.26666666666667E-01   0.00000000000000E+00   0.00000000000000E+00   0.00000000000000E+00   0.00000000000000E+00
      0.00000000000000E+00  -1.18038261680600E-16
      3.00000000000000E-01
      0.00000000000000E+00   0.00000000000000E+00   0.00000000000000E+00   0.00000000000000E+00   5.16071717144413E-16
     -2.29665006097685E-10  -2.29664490025968E-10  -8.07256579034319E-16   0.00000000000000E+00   2.52391606486353E-08
      0.00000000000000E+00   0.00000000000000E+00  -2.52391603603102E-09   0.00000000000000E+00  -2.52391603603102E-09
      3.51690933602381E-16   8.50000000000000E-01   8.49999927517285E-01   0.00000000000000E+00   0.00000000000000E+00
      7.24827150668049E-09   0.00000000000000E+00   7.24827150668049E-09   5.65444880381825E-16   2.55000000000000E-01
      2.55000000000000E-01   0.00000000000000E+00   0.00000000000000E+00   0.00000000000000E+00   0.00000000000000E+00
      0.00000000000000E+00  -1.09879234949885E-16
      3.33333333333333E-01
      0.00000000000000E+00   0.00000000000000E+00   0.00000000000000E+00   0.00000000000000E+00   7.97788722490785E-16
     -1.88305344121264E-10  -1.88304546332542E-10  -8.07372967735628E-16   0.00000000000000E+00   4.19309580939466E-08
      0.00000000000000E+00   0.00000000000000E+00  -4.19309582433438E-09   0.00000000000000E+00  -4.19309582433438E-09
      3.47389345153788E-16   8.50000000000000E-01   8.49999921988457E-01   0.00000000000000E+00   0.00000000000000E+00
      7.80115442635120E-09   0.00000000000000E+00   7.80115442635120E-09   5.61679798990896E-16   2.83333333333333E-01
      2.83333333333333E-01   0.00000000000000E+00   0.00000000000000E+00   0.00000000000000E+00   0.00000000000000E+00
      0.00000000000000E+00  -1.01696176409055E-16
      3.66666666666667E-01
      0.00000000000000E+00   0.00000000000000E+00   0.00000000000000E+00   0.00000000000000E+00   1.09824489452819E-15
     -1.53491478960905E-10  -1.53490380716011E-10  -8.07491800799444E-16   0.00000000000000E+00   7.61924174009650E-08
      0.00000000000000E+00   0.00000000000000E+00  -7.61924173217114E-09   0.00000000000000E+00  -7.61924173217114E-09
      3.43078038758485E-16   8.50000000000000E-01   8.49999894670475E-01   0.00000000000000E+00   0.00000000000000E+00
      1.05329525201796E-08   0.00000000000000E+00   1.05329525201796E-08   5.57902568203862E-16   3.11666666666667E-01
      3.11666666666667E-01   0.00000000000000E+00   0.00000000000000E+00   0.00000000000000E+00   0.00000000000000E+00
      0.00000000000000E+00  -9.34888061629026E-17
      4.00000000000000E-01
      0.00000000000000E+00   0.00000000000000E+00   0.00000000000000E+00   0.00000000000000E+00   1.38881692164402E-15
     -1.24346572245919E-10  -1.24345183428998E-10  -8.07614125066428E-16   0.00000000000000E+00   1.47707018326780E-07
      0.00000000000000E+00   0.00000000000000E+00  -1.47707018346058E-08   0.00000000000000E+00  -1.47707018346058E-08
      3.38757747758867E-16   8.50000000000000E-01   8.49999826674487E-01   0.00000000000000E+00   0.00000000000000E+00
      1.73325512811925E-08   0.00000000000000E+00   1.73325512811925E-08   5.54113080023538E-16   3.40000000000000E-01
      3.40000000000000E-01   0.00000000000000E+00   0.00000000000000E+00   0.00000000000000E+00   0.00000000000000E+00
      0.00000000000000E+00  -8.52567027159782E-17
      4.33333333333333E-01
      0.00000000000000E+00   0.00000000000000E+00   0.00000000000000E+00   0.00000000000000E+00   1.65463991691695E-15
     -1.00099179478320E-10  -1.00097524838403E-10  -8.07741546799916E-16   0.00000000000000E+00   2.98142244681171E-07
      0.00000000000000E+00   0.00000000000000E+00  -2.98142245359822E-08   0.00000000000000E+00  -2.98142245359822E-08
      3.34429506816664E-16   8.50000000000000E-01   8.49999678522896E-01   0.00000000000000E+00   0.00000000000000E+00
      3.21477103674225E-08   0.00000000000000E+00   3.21477103674225E-08   5.50311205871068E-16   3.68333333333333E-01
      3.68333333333333E-01   0.00000000000000E+00   0.00000000000000E+00   0.00000000000000E+00   0.00000000000000E+00
      0.00000000000000E+00  -7.69991658878161E-17
      4.66666666666667E-01
      0.00000000000000E+00   0.00000000000000E+00   0.00000000000000E+00   0.00000000000000E+00   1.86758153622369E-15
     -8.00590078409413E-11  -8.00571402594051E-11  -8.07876616638218E-16   0.00000000000000E+00   6.15176656598522E-07
      0.00000000000000E+00   0.00000000000000E+00  -6.15176656670778E-08   0.00000000000000E+00  -6.15176656670778E-08
      3.30094846322995E-16   8.50000000000000E-01   8.49999363787186E-01   0.00000000000000E+00   0.00000000000000E+00
      6.36212814460110E-08   0.00000000000000E+00   6.36212814460110E-08   5.46496721659434E-16   3.96666666666667E-01
      3.96666666666667E-01   0.00000000000000E+00   0.00000000000000E+00   0.00000000000000E+00   0.00000000000000E+00
      0.00000000000000E+00  -6.87149513442081E-17
      5.00000000000000E-01
      0.00000000000000E+00   0.00000000000000E+00   0.00000000000000E+00   0.00000000000000E+00   1.98477123206271E-15
     -6.36158963714521E-11  -6.36139116002200E-11  -8.08023522916182E-16   0.00000000000000E+00   1.28114672053461E-06
      0.00000000000000E+00   0.00000000000000E+00  -1.28114672114396E-07   0.00000000000000E+00  -1.28114672114396E-07
      3.25756125757156E-16   8.50000000000000E-01   8.49998700398858E-01   0.00000000000000E+00   0.00000000000000E+00
      1.29960114250586E-07   0.00000000000000E+00   1.29960114250586E-07   5.42669170965535E-16   4.25000000000000E-01
      4.25000000000000E-01   0.00000000000000E+00   0.00000000000000E+00   0.00000000000000E+00   0.00000000000000E+00
      0.00000000000000E+00  -6.04017738065093E-17
      5.33333333333333E-01
      0.00000000000000E+00   0.00000000000000E+00   0.00000000000000E+00   0.00000000000000E+00   1.82209134753942E-15
     -5.02166241093874E-11  -5.02148020180398E-11  -8.08189363456619E-16   0.00000000000000E+00   2.67335513337531E-06
      0.00000000000000E+00   0.00000000000000E+00  -2.67335513415761E-07   0.00000000000000E+00  -2.67335513415761E-07
      3.21417134790875E-16   8.50000000000000E-01   8.49997310870321E-01   0.00000000000000E+00   0.00000000000000E+00
      2.68912967919675E-07   0.00000000000000E+00   2.68912967919675E-07   5.38827577509388E-16   4.53333333333333E-01
      4.53333333333333E-01   0.00000000000000E+00   0.00000000000000E+00   0.00000000000000E+00   0.00000000000000E+00
      0.00000000000000E+00  -5.20553488436438E-17
      5.66666666666667E-01
      0.00000000000000E+00   0.00000000000000E+00   0.00000000000000E+00   0.00000000000000E+00   5.04974143959679E-16
     -3.93633787636965E-11  -3.93628737895526E-11  -8.08386288358685E-16   0.00000000000000E+00   5.55352712535872E-06
      0.00000000000000E+00   0.00000000000000E+00  -5.55352712539685E-07   0.00000000000000E+00  -5.55352712539685E-07
      3.17084104680102E-16   8.50000000000000E-01   8.49994433272827E-01   0.00000000000000E+00   0.00000000000000E+00
      5.56672717285771E-07   0.00000000000000E+00   5.56672717285771E-07   5.34969890586798E-16   4.81666666666667E-01
      4.81666666666667E-01   0.00000000000000E+00   0.00000000000000E+00   0.00000000000000E+00   0.00000000000000E+00
      0.00000000000000E+00  -4.36677069082156E-17
      6.00000000000000E-01
      0.00000000000000E+00   0.00000000000000E+00   0.00000000000000E+00   0.00000000000000E+00  -5.19748890600022E-15
     -3.05948503071125E-11  -3.06000477960185E-11  -8.08635029853567E-16   0.00000000000000E+00   1.13991748714625E-05
      0.00000000000000E+00   0.00000000000000E+00  -1.13991748706877E-06   0.00000000000000E+00  -1.13991748706877E-06
      3.12767308479743E-16   8.50000000000000E-01   8.49988589976498E-01   0.00000000000000E+00   0.00000000000000E+00
      1.14100235011343E-06   0.00000000000000E+00   1.14100235011343E-06   5.31092036530120E-16   5.10000000000000E-01
      5.10000000000000E-01   0.00000000000000E+00   0.00000000000000E+00   0.00000000000000E+00   0.00000000000000E+00
      0.00000000000000E+00  -3.52243151562964E-17
      6.33333333333333E-01
      0.00000000000000E+00   0.00000000000000E+00   0.00000000000000E+00   0.00000000000000E+00  -2.80999059291437E-14
     -2.34857837454519E-11  -2.35138836513810E-11  -8.08969738948232E-16   0.00000000000000E+00   2.29266397517077E-05
      0.00000000000000E+00   0.00000000000000E+00  -2.29266397518562E-06   0.00000000000000E+00  -2.29266397518562E-06
      3.08483257028632E-16   8.50000000000000E-01   8.49977064599176E-01   0.00000000000000E+00   0.00000000000000E+00
      2.29354008238255E-06   0.00000000000000E+00   2.29354008238255E-06   5.27186421366845E-16   5.38333333333333E-01
      5.38333333333333E-01   0.00000000000000E+00   0.00000000000000E+00   0.00000000000000E+00   0.00000000000000E+00
      0.00000000000000E+00  -2.66999394472432E-17
      6.66666666666667E-01
      0.00000000000000E+00   0.00000000000000E+00   0.00000000000000E+00   0.00000000000000E+00  -1.13233744788831E-13
     -1.77065590596129E-11  -1.78197928044017E-11  -8.09443317794288E-16   0.00000000000000E+00   4.47752663042889E-05
      0.00000000000000E+00   0.00000000000000E+00  -4.47752663038149E-06   0.00000000000000E+00  -4.47752663038149E-06
      3.04257004296449E-16   8.50000000000000E-01   8.49955217798726E-01   0.00000000000000E+00   0.00000000000000E+00
      4.47822012729334E-06   0.00000000000000E+00   4.47822012729334E-06   5.23240083748495E-16   5.66666666666667E-01
      5.66666666666667E-01   0.00000000000000E+00   0.00000000000000E+00   0.00000000000000E+00   0.00000000000000E+00
      0.00000000000000E+00  -1.80537702506593E-17
      7.00000000000000E-01
      0.00000000000000E+00   0.00000000000000E+00   0.00000000000000E+00   0.00000000000000E+00  -3.61590776492758E-13
     -1.30088432633777E-11  -1.33704340398704E-11  -8.10128449760035E-16   0.00000000000000E+00   8.42717678609884E-05
      0.00000000000000E+00   0.00000000000000E+00  -8.42717678700053E-06   0.00000000000000E+00  -8.42717678700053E-06
      3.00123157485139E-16   8.50000000000000E-01   8.49915722874885E-01   0.00000000000000E+00   0.00000000000000E+00
      8.42771250987683E-06   0.00000000000000E+00   8.42771250987683E-06   5.19232564655933E-16   5.95000000000000E-01
      5.95000000000000E-01   0.00000000000000E+00   0.00000000000000E+00   0.00000000000000E+00   0.00000000000000E+00
      0.00000000000000E+00  -9.22727238103841E-18
      7.33333333333333E-01
      0.00000000000000E+00   0.00000000000000E+00   0.00000000000000E+00   0.00000000000000E+00  -7.13852327295620E-13
     -9.19951825423392E-12  -9.91337058152954E-12  -8.11106463428143E-16   0.00000000000000E+00   1.52024664811176E-04
      0.00000000000000E+00   0.00000000000000E+00  -1.52024664927372E-05   0.00000000000000E+00  -1.52024664927372E-05
      2.96123297043082E-16   8.50000000000000E-01   8.49847971328884E-01   0.00000000000000E+00   0.00000000000000E+00
      1.52028670929165E-05   0.00000000000000E+00   1.52028670929165E-05   5.15134164926184E-16   6.23333333333333E-01
      6.23333333333333E-01   0.00000000000000E+00   0.00000000000000E+00   0.00000000000000E+00   0.00000000000000E+00
      0.00000000000000E+00  -1.50998541123685E-19
      7.66666666666667E-01
      0.00000000000000E+00   0.00000000000000E+00   0.00000000000000E+00   0.00000000000000E+00   5.35150978364917E-13
     -6.15628805653247E-12  -5.62113707816755E-12  -8.12443171856379E-16   0.00000000000000E+00   2.59297849991382E-04
      0.00000000000000E+00   0.00000000000000E+00  -2.59297850534430E-05   0.00000000000000E+00  -2.59297850534430E-05
      2.92293570160681E-16   8.50000000000000E-01   8.49740699280535E-01   0.00000000000000E+00   0.00000000000000E+00
      2.59300718609943E-05   0.00000000000000E+00   2.59300718609943E-05   5.10914784113857E-16   6.51666666666667E-01
      6.51666666666667E-01   0.00000000000000E+00   0.00000000000000E+00   0.00000000000000E+00   0.00000000000000E+00
      0.00000000000000E+00   9.23481758184029E-18
      8.00000000000000E-01
      0.00000000000000E+00   0.00000000000000E+00   0.00000000000000E+00   0.00000000000000E+00   2.74674418186083E-12
     -3.85818207340071E-12  -1.11143789153988E-12  -8.14173661696612E-16   0.00000000000000E+00   4.12570302347560E-04
      0.00000000000000E+00   0.00000000000000E+00  -4.12570303354488E-05   0.00000000000000E+00  -4.12570303354488E-05
      2.88649909277592E-16   8.50000000000000E-01   8.49587427742753E-01   0.00000000000000E+00   0.00000000000000E+00
      4.12572255655092E-05   0.00000000000000E+00   4.12572255655092E-05   5.06562139217186E-16   6.80000000000000E-01
      6.80000000000000E-01   0.00000000000000E+00   0.00000000000000E+00   0.00000000000000E+00   0.00000000000000E+00
      0.00000000000000E+00   1.89616132018347E-17
      8.33333333333333E-01
      0.00000000000000E+00   0.00000000000000E+00   0.00000000000000E+00   0.00000000000000E+00   3.52472014963816E-12
     -2.27795932526599E-12   1.24676082437216E-12  -8.16301889546492E-16   0.00000000000000E+00   6.12594015772947E-04
      0.00000000000000E+00   0.00000000000000E+00  -6.12594016840676E-05   0.00000000000000E+00  -6.12594016840676E-05
      2.85187788880333E-16   8.50000000000000E-01   8.49387404717031E-01   0.00000000000000E+00   0.00000000000000E+00
      6.12595281262808E-05   0.00000000000000E+00   6.12595281262808E-05   5.02082752979300E-16   7.08333333333333E-01
      7.08333333333333E-01   0.00000000000000E+00   0.00000000000000E+00   0.00000000000000E+00   0.00000000000000E+00
      0.00000000000000E+00   2.90313476868607E-17
      8.66666666666667E-01
      0.00000000000000E+00   0.00000000000000E+00   0.00000000000000E+00   0.00000000000000E+00   2.87290625809445E-12
     -1.28200057930843E-12   1.59090567878602E-12  -8.18811597785504E-16   0.00000000000000E+00   8.56411027766405E-04
      0.00000000000000E+00   0.00000000000000E+00  -8.56411028573542E-05   0.00000000000000E+00  -8.56411028573542E-05
      2.81890344494022E-16   8.50000000000000E-01   8.49143588188159E-01   0.00000000000000E+00   0.00000000000000E+00
      8.56411810530985E-05   0.00000000000000E+00   8.56411810530985E-05   4.97493612689517E-16   7.36666666666667E-01
      7.36666666666667E-01   0.00000000000000E+00   0.00000000000000E+00   0.00000000000000E+00   0.00000000000000E+00
      0.00000000000000E+00   3.94276406019641E-17
      9.00000000000000E-01
      0.00000000000000E+00   0.00000000000000E+00   0.00000000000000E+00   0.00000000000000E+00   1.82272011575895E-12
     -6.94833794734830E-13   1.12788632102412E-12  -8.21683471917109E-16   0.00000000000000E+00   1.13920133822271E-03
      0.00000000000000E+00   0.00000000000000E+00  -1.13920133873030E-04   0.00000000000000E+00  -1.13920133873030E-04
      2.78736514073591E-16   8.50000000000000E-01   8.48860798197721E-01   0.00000000000000E+00   0.00000000000000E+00
      1.13920180143778E-04   0.00000000000000E+00   1.13920180143778E-04   4.92816301424103E-16   7.65000000000000E-01
      7.65000000000000E-01   0.00000000000000E+00   0.00000000000000E+00   0.00000000000000E+00   0.00000000000000E+00
      0.00000000000000E+00   5.01306564194164E-17
      9.33333333333333E-01
      0.00000000000000E+00   0.00000000000000E+00   0.00000000000000E+00   0.00000000000000E+00   9.12588019744186E-13
     -3.64752377870208E-13   5.47835641873978E-13  -8.24893150644761E-16   0.00000000000000E+00   1.45576817341125E-03
      0.00000000000000E+00   0.00000000000000E+00  -1.45576817369784E-04   0.00000000000000E+00  -1.45576817369784E-04
      2.75705240484482E-16   8.50000000000000E-01   8.48544231564140E-01   0.00000000000000E+00   0.00000000000000E+00
      1.45576843537664E-04   0.00000000000000E+00   1.45576843537664E-04   4.88070180421823E-16   7.93333333333333E-01
      7.93333333333333E-01   0.00000000000000E+00   0.00000000000000E+00   0.00000000000000E+00   0.00000000000000E+00
      0.00000000000000E+00   6.11177297384544E-17
      9.66666666666667E-01
      0.00000000000000E+00   0.00000000000000E+00   0.00000000000000E+00   0.00000000000000E+00   5.07197800693302E-13
     -1.85968741305064E-13   3.21229059388238E-13  -8.28435032549999E-16   0.00000000000000E+00   1.80091347398948E-03
      0.00000000000000E+00   0.00000000000000E+00  -1.80091347414499E-04   0.00000000000000E+00  -1.80091347414499E-04
      2.72778360918553E-16   8.50000000000000E-01   8.48199086384381E-01   0.00000000000000E+00   0.00000000000000E+00
      1.80091361534948E-04   0.00000000000000E+00   1.80091361534948E-04   4.83276892090407E-16   8.21666666666667E-01
      8.21666666666667E-01   0.00000000000000E+00   0.00000000000000E+00   0.00000000000000E+00   0.00000000000000E+00
      0.00000000000000E+00   7.23797795410441E-17
      1.00000000000000E+00
      0.00000000000000E+00   0.00000000000000E+00   0.00000000000000E+00   0.00000000000000E+00   2.54278845479024E-13
     -9.19679461765795E-14   1.62310899302444E-13  -8.32290633165119E-16   0.00000000000000E+00   2.17007368850482E-03
      0.00000000000000E+00   0.00000000000000E+00  -2.17007368858743E-04   0.00000000000000E+00  -2.17007368858743E-04
      2.69940278963695E-16   8.50000000000000E-01   8.47829926238788E-01   0.00000000000000E+00   0.00000000000000E+00
      2.17007376106679E-04   0.00000000000000E+00   2.17007376106679E-04   4.78450228133894E-16   8.50000000000000E-01
      8.50000000000000E-01   0.00000000000000E+00   0.00000000000000E+00   0.00000000000000E+00   0.00000000000000E+00
      0.00000000000000E+00   8.39001260675321E-17
}
