DF-ISE text

Info {
  version   = 1.0
  type      = xyplot
  datasets  = [
    "time"
    "Substrate OuterVoltage" "Substrate InnerVoltage" "Substrate QuasiFermiPotential" "Substrate DisplacementCurrent" "Substrate eCurrent"
    "Substrate hCurrent" "Substrate TotalCurrent" "Substrate Charge" "source OuterVoltage" "source InnerVoltage"
    "source QuasiFermiPotential" "source DisplacementCurrent" "source eCurrent" "source hCurrent" "source TotalCurrent"
    "source Charge" "drain OuterVoltage" "drain InnerVoltage" "drain QuasiFermiPotential" "drain DisplacementCurrent"
    "drain eCurrent" "drain hCurrent" "drain TotalCurrent" "drain Charge" "gate OuterVoltage"
    "gate InnerVoltage" "gate QuasiFermiPotential" "gate DisplacementCurrent" "gate eCurrent" "gate hCurrent"
    "gate TotalCurrent" "gate Charge" ]
  functions = [
    Time
    OuterVoltage InnerVoltage QuasiFermiPotential DisplacementCurrent eCurrent
    hCurrent TotalCurrent Charge OuterVoltage InnerVoltage
    QuasiFermiPotential DisplacementCurrent eCurrent hCurrent TotalCurrent
    Charge OuterVoltage InnerVoltage QuasiFermiPotential DisplacementCurrent
    eCurrent hCurrent TotalCurrent Charge OuterVoltage
    InnerVoltage QuasiFermiPotential DisplacementCurrent eCurrent hCurrent
    TotalCurrent Charge ]
}

Data {
      0.00000000000000E+00
      0.00000000000000E+00   0.00000000000000E+00   0.00000000000000E+00   0.00000000000000E+00  -9.46147969719997E-18
     -1.95646885321812E-09  -1.95646886267960E-09  -8.06090568578667E-16   0.00000000000000E+00   4.18795689347006E-09
      0.00000000000000E+00   0.00000000000000E+00  -4.18795717294580E-10   0.00000000000000E+00  -4.18795717294580E-10
      3.89782591841841E-16   8.50000000000000E-01   8.49999719667024E-01   0.00000000000000E+00   0.00000000000000E+00
      2.80332974300742E-08   0.00000000000000E+00   2.80332974300742E-08   5.98526140937029E-16   0.00000000000000E+00
      0.00000000000000E+00   0.00000000000000E+00   0.00000000000000E+00   0.00000000000000E+00   0.00000000000000E+00
      0.00000000000000E+00  -1.82218164200201E-16
      3.33333333333333E-02
      0.00000000000000E+00   0.00000000000000E+00   0.00000000000000E+00   0.00000000000000E+00  -1.23422140762174E-14
     -1.64119430163397E-09  -1.64120664384805E-09  -8.06202084049026E-16   0.00000000000000E+00   4.70950798313595E-09
      0.00000000000000E+00   0.00000000000000E+00  -4.70950862885126E-10   0.00000000000000E+00  -4.70950862885126E-10
      3.85579961500030E-16   8.50000000000000E-01   8.49999757835031E-01   0.00000000000000E+00   0.00000000000000E+00
      2.42164967019784E-08   0.00000000000000E+00   2.42164967019784E-08   5.94851859645648E-16   2.83333333333333E-02
      2.83333333333333E-02   0.00000000000000E+00   0.00000000000000E+00   0.00000000000000E+00   0.00000000000000E+00
      0.00000000000000E+00  -1.74229737096651E-16
      6.66666666666667E-02
      0.00000000000000E+00   0.00000000000000E+00   0.00000000000000E+00   0.00000000000000E+00  -1.20064481232807E-13
     -1.37013496942114E-09  -1.37025503390238E-09  -8.06313660853552E-16   0.00000000000000E+00   5.30801136775506E-09
      0.00000000000000E+00   0.00000000000000E+00  -5.30801692015700E-10   0.00000000000000E+00  -5.30801692015700E-10
      3.81363878859142E-16   8.50000000000000E-01   8.49999793434897E-01   0.00000000000000E+00   0.00000000000000E+00
      2.06565092700945E-08   0.00000000000000E+00   2.06565092700945E-08   5.91167826451925E-16   5.66666666666667E-02
      5.66666666666667E-02   0.00000000000000E+00   0.00000000000000E+00   0.00000000000000E+00   0.00000000000000E+00
      0.00000000000000E+00  -1.66218044457515E-16
      1.00000000000000E-01
      0.00000000000000E+00   0.00000000000000E+00   0.00000000000000E+00   0.00000000000000E+00  -1.00888633622561E-17
     -1.13804617880351E-09  -1.13804618889238E-09  -8.06425401647182E-16   0.00000000000000E+00   6.01146062574471E-09
      0.00000000000000E+00   0.00000000000000E+00  -6.01146049753537E-10   0.00000000000000E+00  -6.01146049753537E-10
      3.77134657548294E-16   8.50000000000000E-01   8.49999826771842E-01   0.00000000000000E+00   0.00000000000000E+00
      1.73228156973613E-08   0.00000000000000E+00   1.73228156973613E-08   5.87473868149945E-16   8.50000000000000E-02
      8.50000000000000E-02   0.00000000000000E+00   0.00000000000000E+00   0.00000000000000E+00   0.00000000000000E+00
      0.00000000000000E+00  -1.58183124051055E-16
      1.33333333333333E-01
      0.00000000000000E+00   0.00000000000000E+00   0.00000000000000E+00   0.00000000000000E+00  -1.02770192476924E-17
     -9.41130342850540E-10  -9.41130353127559E-10  -8.06537436818900E-16   0.00000000000000E+00   6.87306728166006E-09
      0.00000000000000E+00   0.00000000000000E+00  -6.87306837986247E-10   0.00000000000000E+00  -6.87306837986247E-10
      3.72892671308267E-16   8.50000000000000E-01   8.49999857012512E-01   0.00000000000000E+00   0.00000000000000E+00
      1.42987487223864E-08   0.00000000000000E+00   1.42987487223864E-08   5.83769852583267E-16   1.13333333333333E-01
      1.13333333333333E-01   0.00000000000000E+00   0.00000000000000E+00   0.00000000000000E+00   0.00000000000000E+00
      0.00000000000000E+00  -1.50125087072632E-16
      1.66666666666667E-01
      0.00000000000000E+00   0.00000000000000E+00   0.00000000000000E+00   0.00000000000000E+00   1.00022189042735E-15
     -7.75433030713445E-10  -7.75432030491554E-10  -8.06649933179752E-16   0.00000000000000E+00   7.99773814511525E-09
      0.00000000000000E+00   0.00000000000000E+00  -7.99773847534499E-10   0.00000000000000E+00  -7.99773847534499E-10
      3.68638329850646E-16   8.50000000000000E-01   8.49999882662289E-01   0.00000000000000E+00   0.00000000000000E+00
      1.17337711275276E-08   0.00000000000000E+00   1.17337711275276E-08   5.80055685533089E-16   1.41666666666667E-01
      1.41666666666667E-01   0.00000000000000E+00   0.00000000000000E+00   0.00000000000000E+00   0.00000000000000E+00
      0.00000000000000E+00  -1.42044082203985E-16
      2.00000000000000E-01
      0.00000000000000E+00   0.00000000000000E+00   0.00000000000000E+00   0.00000000000000E+00   1.05111169887762E-15
     -6.36582687626363E-10  -6.36581636514664E-10  -8.06763106082967E-16   0.00000000000000E+00   9.58884476024569E-09
      0.00000000000000E+00   0.00000000000000E+00  -9.58884449374624E-10   0.00000000000000E+00  -9.58884449374624E-10
      3.64372063642027E-16   8.50000000000000E-01   8.49999903201039E-01   0.00000000000000E+00   0.00000000000000E+00
      9.67989612912838E-09   0.00000000000000E+00   9.67989612912838E-09   5.76331305208177E-16   1.70000000000000E-01
      1.70000000000000E-01   0.00000000000000E+00   0.00000000000000E+00   0.00000000000000E+00   0.00000000000000E+00
      0.00000000000000E+00  -1.33940262767239E-16
      2.33333333333333E-01
      0.00000000000000E+00   0.00000000000000E+00   0.00000000000000E+00   0.00000000000000E+00   1.01075355730087E-15
     -5.20547440744429E-10  -5.20546429990871E-10  -8.06877236432862E-16   0.00000000000000E+00   1.20829168186257E-08
      0.00000000000000E+00   0.00000000000000E+00  -1.20829172357576E-09   0.00000000000000E+00  -1.20829172357576E-09
      3.60094320991652E-16   8.50000000000000E-01   8.49999919759751E-01   0.00000000000000E+00   0.00000000000000E+00
      8.02402493790782E-09   0.00000000000000E+00   8.02402493790782E-09   5.72596667278500E-16   1.98333333333333E-01
      1.98333333333333E-01   0.00000000000000E+00   0.00000000000000E+00   0.00000000000000E+00   0.00000000000000E+00
      0.00000000000000E+00  -1.25813751837292E-16
      2.66666666666667E-01
      0.00000000000000E+00   0.00000000000000E+00   0.00000000000000E+00   0.00000000000000E+00   1.51476366155287E-15
     -4.23748030908319E-10  -4.23746516144658E-10  -8.06992694812744E-16   0.00000000000000E+00   1.64071177882803E-08
      0.00000000000000E+00   0.00000000000000E+00  -1.64071179304534E-09   0.00000000000000E+00  -1.64071179304534E-09
      3.55805580413436E-16   8.50000000000000E-01   8.49999932607193E-01   0.00000000000000E+00   0.00000000000000E+00
      6.73928072331870E-09   0.00000000000000E+00   6.73928072331870E-09   5.68851714984264E-16   2.26666666666667E-01
      2.26666666666667E-01   0.00000000000000E+00   0.00000000000000E+00   0.00000000000000E+00   0.00000000000000E+00
      0.00000000000000E+00  -1.17664600584956E-16
      3.00000000000000E-01
      0.00000000000000E+00   0.00000000000000E+00   0.00000000000000E+00   0.00000000000000E+00   2.18799215139612E-15
     -3.43196573216055E-10  -3.43194385223903E-10  -8.07109976894931E-16   0.00000000000000E+00   2.45259334848412E-08
      0.00000000000000E+00   0.00000000000000E+00  -2.45259330931612E-09   0.00000000000000E+00  -2.45259330931612E-09
      3.51506378097797E-16   8.50000000000000E-01   8.49999938181845E-01   0.00000000000000E+00   0.00000000000000E+00
      6.18181543658908E-09   0.00000000000000E+00   6.18181543658908E-09   5.65096348562398E-16   2.55000000000000E-01
      2.55000000000000E-01   0.00000000000000E+00   0.00000000000000E+00   0.00000000000000E+00   0.00000000000000E+00
      0.00000000000000E+00  -1.09492749765264E-16
      3.33333333333333E-01
      0.00000000000000E+00   0.00000000000000E+00   0.00000000000000E+00   0.00000000000000E+00   2.97865121396426E-15
     -2.76516579921298E-10  -2.76513601270084E-10  -8.07229757715610E-16   0.00000000000000E+00   4.06379497046764E-08
      0.00000000000000E+00   0.00000000000000E+00  -4.06379495408479E-09   0.00000000000000E+00  -4.06379495408479E-09
      3.47197349930252E-16   8.50000000000000E-01   8.49999930215617E-01   0.00000000000000E+00   0.00000000000000E+00
      6.97843825520527E-09   0.00000000000000E+00   6.97843825520527E-09   5.61330416020282E-16   2.83333333333333E-01
      2.83333333333333E-01   0.00000000000000E+00   0.00000000000000E+00   0.00000000000000E+00   0.00000000000000E+00
      0.00000000000000E+00  -1.01298008234924E-16
      3.66666666666667E-01
      0.00000000000000E+00   0.00000000000000E+00   0.00000000000000E+00   0.00000000000000E+00   3.75606921410239E-15
     -2.21588341043553E-10  -2.21584584974339E-10  -8.07352976536383E-16   0.00000000000000E+00   7.37427675215757E-08
      0.00000000000000E+00   0.00000000000000E+00  -7.37427675042612E-09   0.00000000000000E+00  -7.37427675042612E-09
      3.42879293071702E-16   8.50000000000000E-01   8.49999900909439E-01   0.00000000000000E+00   0.00000000000000E+00
      9.90905618601502E-09   0.00000000000000E+00   9.90905618601502E-09   5.57553712238444E-16   3.11666666666667E-01
      3.11666666666667E-01   0.00000000000000E+00   0.00000000000000E+00   0.00000000000000E+00   0.00000000000000E+00
      0.00000000000000E+00  -9.30800287737603E-17
      4.00000000000000E-01
      0.00000000000000E+00   0.00000000000000E+00   0.00000000000000E+00   0.00000000000000E+00   4.27886003310611E-15
     -1.76416769312586E-10  -1.76412490452553E-10  -8.07480973445458E-16   0.00000000000000E+00   1.42963215300841E-07
      0.00000000000000E+00   0.00000000000000E+00  -1.42963215148880E-08   0.00000000000000E+00  -1.42963215148880E-08
      3.38553257707522E-16   8.50000000000000E-01   8.49999833593914E-01   0.00000000000000E+00   0.00000000000000E+00
      1.66406086360815E-08   0.00000000000000E+00   1.66406086360815E-08   5.53765956240683E-16   3.40000000000000E-01
      3.40000000000000E-01   0.00000000000000E+00   0.00000000000000E+00   0.00000000000000E+00   0.00000000000000E+00
      0.00000000000000E+00  -8.48382405027463E-17
      4.33333333333333E-01
      0.00000000000000E+00   0.00000000000000E+00   0.00000000000000E+00   0.00000000000000E+00   4.21208862549641E-15
     -1.39397862886261E-10  -1.39393650797636E-10  -8.07615721396021E-16   0.00000000000000E+00   2.88890391002491E-07
      0.00000000000000E+00   0.00000000000000E+00  -2.88890390582809E-08   0.00000000000000E+00  -2.88890390582809E-08
      3.34220683767761E-16   8.50000000000000E-01   8.49999689258916E-01   0.00000000000000E+00   0.00000000000000E+00
      3.10741082999624E-08   0.00000000000000E+00   3.10741082999624E-08   5.49966761393000E-16   3.68333333333333E-01
      3.68333333333333E-01   0.00000000000000E+00   0.00000000000000E+00   0.00000000000000E+00   0.00000000000000E+00
      0.00000000000000E+00  -7.65717237647415E-17
      4.66666666666667E-01
      0.00000000000000E+00   0.00000000000000E+00   0.00000000000000E+00   0.00000000000000E+00   3.16559474218718E-15
     -1.09283485620903E-10  -1.09280320026161E-10  -8.07760225363844E-16   0.00000000000000E+00   5.97151967444514E-07
      0.00000000000000E+00   0.00000000000000E+00  -5.97151967300137E-08   0.00000000000000E+00  -5.97151967300137E-08
      3.29883613335302E-16   8.50000000000000E-01   8.49999382900425E-01   0.00000000000000E+00   0.00000000000000E+00
      6.17099575482505E-08   0.00000000000000E+00   6.17099575482505E-08   5.46155587454639E-16   3.96666666666667E-01
      3.96666666666667E-01   0.00000000000000E+00   0.00000000000000E+00   0.00000000000000E+00   0.00000000000000E+00
      0.00000000000000E+00  -6.82789754260998E-17
      5.00000000000000E-01
      0.00000000000000E+00   0.00000000000000E+00   0.00000000000000E+00   0.00000000000000E+00   6.01370179312050E-16
     -8.49743817233193E-11  -8.49737803531400E-11  -8.07919232896149E-16   0.00000000000000E+00   1.24660065874244E-06
      0.00000000000000E+00   0.00000000000000E+00  -1.24660065906132E-07   0.00000000000000E+00  -1.24660065906132E-07
      3.25545041055060E-16   8.50000000000000E-01   8.49998735711354E-01   0.00000000000000E+00   0.00000000000000E+00
      1.26428864565875E-07   0.00000000000000E+00   1.26428864565875E-07   5.42331631068625E-16   4.25000000000000E-01
      4.25000000000000E-01   0.00000000000000E+00   0.00000000000000E+00   0.00000000000000E+00   0.00000000000000E+00
      0.00000000000000E+00  -5.99574392275367E-17
      5.33333333333333E-01
      0.00000000000000E+00   0.00000000000000E+00   0.00000000000000E+00   0.00000000000000E+00  -4.87787562169646E-15
     -6.54855140944995E-11  -6.54903919701212E-11  -8.08100530609452E-16   0.00000000000000E+00   2.60902338420257E-06
      0.00000000000000E+00   0.00000000000000E+00  -2.60902338426898E-07   0.00000000000000E+00  -2.60902338426898E-07
      3.21209524200155E-16   8.50000000000000E-01   8.49997375705668E-01   0.00000000000000E+00   0.00000000000000E+00
      2.62429433185889E-07   0.00000000000000E+00   2.62429433185889E-07   5.38493567816630E-16   4.53333333333333E-01
      4.53333333333333E-01   0.00000000000000E+00   0.00000000000000E+00   0.00000000000000E+00   0.00000000000000E+00
      0.00000000000000E+00  -5.16025614073312E-17
      5.66666666666667E-01
      0.00000000000000E+00   0.00000000000000E+00   0.00000000000000E+00   0.00000000000000E+00  -1.61629177869944E-14
     -4.99750998716507E-11  -4.99912627894377E-11  -8.08317134361932E-16   0.00000000000000E+00   5.44006065025338E-06
      0.00000000000000E+00   0.00000000000000E+00  -5.44006065030387E-07   0.00000000000000E+00  -5.44006065030387E-07
      3.16884197952910E-16   8.50000000000000E-01   8.49994547057420E-01   0.00000000000000E+00   0.00000000000000E+00
      5.45294257960881E-07   0.00000000000000E+00   5.45294257960881E-07   5.34639021835851E-16   4.81666666666667E-01
      4.81666666666667E-01   0.00000000000000E+00   0.00000000000000E+00   0.00000000000000E+00   0.00000000000000E+00
      0.00000000000000E+00  -4.32060854268300E-17
      6.00000000000000E-01
      0.00000000000000E+00   0.00000000000000E+00   0.00000000000000E+00   0.00000000000000E+00  -4.59737450479001E-14
     -3.77230256691923E-11  -3.77689994142402E-11  -8.08590954855771E-16   0.00000000000000E+00   1.12157694242891E-05
      0.00000000000000E+00   0.00000000000000E+00  -1.12157694242094E-06   0.00000000000000E+00  -1.12157694242094E-06
      3.12580366711667E-16   8.50000000000000E-01   8.49988773593606E-01   0.00000000000000E+00   0.00000000000000E+00
      1.12264063948429E-06   0.00000000000000E+00   1.12264063948429E-06   5.30763640182263E-16   5.10000000000000E-01
      5.10000000000000E-01   0.00000000000000E+00   0.00000000000000E+00   0.00000000000000E+00   0.00000000000000E+00
      0.00000000000000E+00  -3.47530520381585E-17
      6.33333333333333E-01
      0.00000000000000E+00   0.00000000000000E+00   0.00000000000000E+00   0.00000000000000E+00  -1.28151687165791E-13
     -2.81017675457972E-11  -2.82299192329630E-11  -8.08957817525498E-16   0.00000000000000E+00   2.26763634047298E-05
      0.00000000000000E+00   0.00000000000000E+00  -2.26763634052819E-06   0.00000000000000E+00  -2.26763634052819E-06
      3.08315694454743E-16   8.50000000000000E-01   8.49977315043600E-01   0.00000000000000E+00   0.00000000000000E+00
      2.26849564003642E-06   0.00000000000000E+00   2.26849564003642E-06   5.26859545854873E-16   5.38333333333333E-01
      5.38333333333333E-01   0.00000000000000E+00   0.00000000000000E+00   0.00000000000000E+00   0.00000000000000E+00
      0.00000000000000E+00  -2.62174227841147E-17
      6.66666666666667E-01
      0.00000000000000E+00   0.00000000000000E+00   0.00000000000000E+00   0.00000000000000E+00  -3.39773113277757E-13
     -2.05743000827438E-11  -2.09140731960216E-11  -8.09473419639325E-16   0.00000000000000E+00   4.45661319728103E-05
      0.00000000000000E+00   0.00000000000000E+00  -4.45661319735329E-06   0.00000000000000E+00  -4.45661319735329E-06
      3.04116565030979E-16   8.50000000000000E-01   8.49955427099835E-01   0.00000000000000E+00   0.00000000000000E+00
      4.45729001639979E-06   0.00000000000000E+00   4.45729001639979E-06   5.22913400996155E-16   5.66666666666667E-01
      5.66666666666667E-01   0.00000000000000E+00   0.00000000000000E+00   0.00000000000000E+00   0.00000000000000E+00
      0.00000000000000E+00  -1.75565463878056E-17
      7.00000000000000E-01
      0.00000000000000E+00   0.00000000000000E+00   0.00000000000000E+00   0.00000000000000E+00  -7.27504656088578E-13
     -1.47059397620694E-11  -1.54334444181580E-11  -8.10214975229812E-16   0.00000000000000E+00   8.45179347662039E-05
      0.00000000000000E+00   0.00000000000000E+00  -8.45179347757490E-06   0.00000000000000E+00  -8.45179347757490E-06
      3.00019216002080E-16   8.50000000000000E-01   8.49915476887960E-01   0.00000000000000E+00   0.00000000000000E+00
      8.45231120243219E-06   0.00000000000000E+00   8.45231120243219E-06   5.18903930762023E-16   5.95000000000000E-01
      5.95000000000000E-01   0.00000000000000E+00   0.00000000000000E+00   0.00000000000000E+00   0.00000000000000E+00
      0.00000000000000E+00  -8.70817153429232E-18
      7.33333333333333E-01
      0.00000000000000E+00   0.00000000000000E+00   0.00000000000000E+00   0.00000000000000E+00  -5.50088790076510E-13
     -1.01655905727201E-11  -1.07156793627966E-11  -8.11270784216968E-16   0.00000000000000E+00   1.53831342152401E-04
      0.00000000000000E+00   0.00000000000000E+00  -1.53831342287505E-05   0.00000000000000E+00  -1.53831342287505E-05
      2.96067283197283E-16   8.50000000000000E-01   8.49846164851155E-01   0.00000000000000E+00   0.00000000000000E+00
      1.53835148656631E-05   0.00000000000000E+00   1.53835148656631E-05   5.14799821453043E-16   6.23333333333333E-01
      6.23333333333333E-01   0.00000000000000E+00   0.00000000000000E+00   0.00000000000000E+00   0.00000000000000E+00
      0.00000000000000E+00   4.03679566641798E-19
      7.66666666666667E-01
      0.00000000000000E+00   0.00000000000000E+00   0.00000000000000E+00   0.00000000000000E+00   3.15880647542586E-12
     -6.72130134554155E-12  -3.56249487011569E-12  -8.12713563865703E-16   0.00000000000000E+00   2.64741172285393E-04
      0.00000000000000E+00   0.00000000000000E+00  -2.64741173055307E-05   0.00000000000000E+00  -2.64741173055307E-05
      2.92298752110974E-16   8.50000000000000E-01   8.49735256166360E-01   0.00000000000000E+00   0.00000000000000E+00
      2.64743832727209E-05   0.00000000000000E+00   2.64743832727209E-05   5.10568825925277E-16   6.51666666666667E-01
      6.51666666666667E-01   0.00000000000000E+00   0.00000000000000E+00   0.00000000000000E+00   0.00000000000000E+00
      0.00000000000000E+00   9.84598582945085E-18
      8.00000000000000E-01
      0.00000000000000E+00   0.00000000000000E+00   0.00000000000000E+00   0.00000000000000E+00   8.41315150950492E-12
     -4.22123756587559E-12   4.19191394362933E-12  -8.14582920081894E-16   0.00000000000000E+00   4.24410852332711E-04
      0.00000000000000E+00   0.00000000000000E+00  -4.24410866137123E-05   0.00000000000000E+00  -4.24410866137123E-05
      2.88729892171181E-16   8.50000000000000E-01   8.49575587389675E-01   0.00000000000000E+00   0.00000000000000E+00
      4.24412608532917E-05   0.00000000000000E+00   4.24412608532917E-05   5.06197857689311E-16   6.80000000000000E-01
      6.80000000000000E-01   0.00000000000000E+00   0.00000000000000E+00   0.00000000000000E+00   0.00000000000000E+00
      0.00000000000000E+00   1.96551702214020E-17
      8.33333333333333E-01
      0.00000000000000E+00   0.00000000000000E+00   0.00000000000000E+00   0.00000000000000E+00   9.48777554953783E-12
     -2.51557300022045E-12   6.97220254931738E-12  -8.16882415358455E-16   0.00000000000000E+00   6.33761912189818E-04
      0.00000000000000E+00   0.00000000000000E+00  -6.33761913286232E-05   0.00000000000000E+00  -6.33761913286232E-05
      2.85354845543618E-16   8.50000000000000E-01   8.49366236988977E-01   0.00000000000000E+00   0.00000000000000E+00
      6.33763009042241E-05   0.00000000000000E+00   6.33763009042241E-05   5.01694229276131E-16   7.08333333333333E-01
      7.08333333333333E-01   0.00000000000000E+00   0.00000000000000E+00   0.00000000000000E+00   0.00000000000000E+00
      0.00000000000000E+00   2.98333405387060E-17
      8.66666666666667E-01
      0.00000000000000E+00   0.00000000000000E+00   0.00000000000000E+00   0.00000000000000E+00   7.12245611496863E-12
     -1.42590350142691E-12   5.69655261354171E-12  -8.19592888008732E-16   0.00000000000000E+00   8.89561974192516E-04
      0.00000000000000E+00   0.00000000000000E+00  -8.89561975024205E-05   0.00000000000000E+00  -8.89561975024205E-05
      2.82154131073008E-16   8.50000000000000E-01   8.49110437370539E-01   0.00000000000000E+00   0.00000000000000E+00
      8.89562627908357E-05   0.00000000000000E+00   8.89562627908357E-05   4.97076846338821E-16   7.36666666666667E-01
      7.36666666666667E-01   0.00000000000000E+00   0.00000000000000E+00   0.00000000000000E+00   0.00000000000000E+00
      0.00000000000000E+00   4.03619105969018E-17
      9.00000000000000E-01
      0.00000000000000E+00   0.00000000000000E+00   0.00000000000000E+00   0.00000000000000E+00   4.39647084397701E-12
     -7.70830386915861E-13   3.62564045706115E-12  -8.22690615706959E-16   0.00000000000000E+00   1.18647928619932E-03
      0.00000000000000E+00   0.00000000000000E+00  -1.18647928671979E-04   0.00000000000000E+00  -1.18647928671979E-04
      2.79104069258798E-16   8.50000000000000E-01   8.48813520341361E-01   0.00000000000000E+00   0.00000000000000E+00
      1.18647965765858E-04   0.00000000000000E+00   1.18647965765858E-04   4.92369207614364E-16   7.65000000000000E-01
      7.65000000000000E-01   0.00000000000000E+00   0.00000000000000E+00   0.00000000000000E+00   0.00000000000000E+00
      0.00000000000000E+00   5.12173388337977E-17
      9.33333333333333E-01
      0.00000000000000E+00   0.00000000000000E+00   0.00000000000000E+00   0.00000000000000E+00   2.33854194186987E-12
     -3.98138564176890E-13   1.94040337769298E-12  -8.26146225991651E-16   0.00000000000000E+00   1.51882702895387E-03
      0.00000000000000E+00   0.00000000000000E+00  -1.51882702923534E-04   0.00000000000000E+00  -1.51882702923534E-04
      2.76181298154924E-16   8.50000000000000E-01   8.48481172769359E-01   0.00000000000000E+00   0.00000000000000E+00
      1.51882723010647E-04   0.00000000000000E+00   1.51882723010647E-04   4.87592648817462E-16   7.93333333333333E-01
      7.93333333333333E-01   0.00000000000000E+00   0.00000000000000E+00   0.00000000000000E+00   0.00000000000000E+00
      0.00000000000000E+00   6.23722790192648E-17
      9.66666666666667E-01
      0.00000000000000E+00   0.00000000000000E+00   0.00000000000000E+00   0.00000000000000E+00   1.13373925701149E-12
     -1.97073813843445E-13   9.36665443168041E-13  -8.29950804439187E-16   0.00000000000000E+00   1.88086776595070E-03
      0.00000000000000E+00   0.00000000000000E+00  -1.88086776610807E-04   0.00000000000000E+00  -1.88086776610807E-04
      2.73365818972394E-16   8.50000000000000E-01   8.48119132130347E-01   0.00000000000000E+00   0.00000000000000E+00
      1.88086786935130E-04   0.00000000000000E+00   1.88086786935130E-04   4.82770143441178E-16   8.21666666666667E-01
      8.21666666666667E-01   0.00000000000000E+00   0.00000000000000E+00   0.00000000000000E+00   0.00000000000000E+00
      0.00000000000000E+00   7.38148420256144E-17
      1.00000000000000E+00
      0.00000000000000E+00   0.00000000000000E+00   0.00000000000000E+00   0.00000000000000E+00   5.47882147365964E-13
     -9.33929171068085E-14   4.54489230259155E-13  -8.34083983865015E-16   0.00000000000000E+00   2.26772366592160E-03
      0.00000000000000E+00   0.00000000000000E+00  -2.26772366600340E-04   0.00000000000000E+00  -2.26772366600340E-04
      2.70640877906190E-16   8.50000000000000E-01   8.47732276283442E-01   0.00000000000000E+00   0.00000000000000E+00
      2.26772371639543E-04   0.00000000000000E+00   2.26772371639543E-04   4.77916392242513E-16   8.50000000000000E-01
      8.50000000000000E-01   0.00000000000000E+00   0.00000000000000E+00   0.00000000000000E+00   0.00000000000000E+00
      0.00000000000000E+00   8.55267137163140E-17
}
