DF-ISE text

Info {
  version   = 1.0
  type      = xyplot
  datasets  = [
    "time"
    "Substrate OuterVoltage" "Substrate InnerVoltage" "Substrate QuasiFermiPotential" "Substrate DisplacementCurrent" "Substrate eCurrent"
    "Substrate hCurrent" "Substrate TotalCurrent" "Substrate Charge" "source OuterVoltage" "source InnerVoltage"
    "source QuasiFermiPotential" "source DisplacementCurrent" "source eCurrent" "source hCurrent" "source TotalCurrent"
    "source Charge" "drain OuterVoltage" "drain InnerVoltage" "drain QuasiFermiPotential" "drain DisplacementCurrent"
    "drain eCurrent" "drain hCurrent" "drain TotalCurrent" "drain Charge" "gate OuterVoltage"
    "gate InnerVoltage" "gate QuasiFermiPotential" "gate DisplacementCurrent" "gate eCurrent" "gate hCurrent"
    "gate TotalCurrent" "gate Charge" ]
  functions = [
    Time
    OuterVoltage InnerVoltage QuasiFermiPotential DisplacementCurrent eCurrent
    hCurrent TotalCurrent Charge OuterVoltage InnerVoltage
    QuasiFermiPotential DisplacementCurrent eCurrent hCurrent TotalCurrent
    Charge OuterVoltage InnerVoltage QuasiFermiPotential DisplacementCurrent
    eCurrent hCurrent TotalCurrent Charge OuterVoltage
    InnerVoltage QuasiFermiPotential DisplacementCurrent eCurrent hCurrent
    TotalCurrent Charge ]
}

Data {
      0.00000000000000E+00
      0.00000000000000E+00   0.00000000000000E+00   0.00000000000000E+00   0.00000000000000E+00  -1.40067059183473E-18
     -1.30347441499863E-17  -1.44354147418210E-17  -7.95638705007642E-16   0.00000000000000E+00   3.76012468071043E-12
      0.00000000000000E+00   0.00000000000000E+00  -9.39904150079063E-14   0.00000000000000E+00  -9.39904150079063E-14
      4.15298175828454E-16   5.00000000000000E-02   4.99999999962124E-02   0.00000000000000E+00   0.00000000000000E+00
      9.47051765023873E-14   0.00000000000000E+00   9.47051765023873E-14   4.40766657690156E-16   0.00000000000000E+00
      0.00000000000000E+00   0.00000000000000E+00   0.00000000000000E+00   0.00000000000000E+00   0.00000000000000E+00
      0.00000000000000E+00  -6.04261285109692E-17
      3.33333333333333E-02
      0.00000000000000E+00   0.00000000000000E+00   0.00000000000000E+00   0.00000000000000E+00  -1.79387585895227E-18
     -7.29142663916059E-18  -9.08530249811286E-18  -7.95781564410782E-16   0.00000000000000E+00   6.27768623918273E-12
      0.00000000000000E+00   0.00000000000000E+00  -1.56950476464868E-13   0.00000000000000E+00  -1.56950476464868E-13
      4.11175081208411E-16   5.00000000000000E-02   4.99999999936956E-02   0.00000000000000E+00   0.00000000000000E+00
      1.57620496809096E-13   0.00000000000000E+00   1.57620496809096E-13   4.36700557350887E-16   2.83333333333333E-02
      2.83333333333333E-02   0.00000000000000E+00   0.00000000000000E+00   0.00000000000000E+00   0.00000000000000E+00
      0.00000000000000E+00  -5.20940741485168E-17
      6.66666666666667E-02
      0.00000000000000E+00   0.00000000000000E+00   0.00000000000000E+00   0.00000000000000E+00  -1.70400772122200E-18
     -5.59015003727679E-18  -7.29415775849879E-18  -7.95923805614894E-16   0.00000000000000E+00   1.16203221883251E-11
      0.00000000000000E+00   0.00000000000000E+00  -2.90503133130050E-13   0.00000000000000E+00  -2.90503133130050E-13
      4.07038348162390E-16   5.00000000000000E-02   4.99999999883534E-02   0.00000000000000E+00   0.00000000000000E+00
      2.91163045456186E-13   0.00000000000000E+00   2.91163045456186E-13   4.32621064548667E-16   5.66666666666667E-02
      5.66666666666667E-02   0.00000000000000E+00   0.00000000000000E+00   0.00000000000000E+00   0.00000000000000E+00
      0.00000000000000E+00  -4.37356070961619E-17
      1.00000000000000E-01
      0.00000000000000E+00   0.00000000000000E+00   0.00000000000000E+00   0.00000000000000E+00  -1.00817283850561E-18
     -5.06618337993828E-18  -6.07435621844389E-18  -7.96065548246603E-16   0.00000000000000E+00   2.32970382178771E-11
      0.00000000000000E+00   0.00000000000000E+00  -5.82514139728734E-13   0.00000000000000E+00  -5.82514139728734E-13
      4.02888166536537E-16   5.00000000000000E-02   4.99999999766769E-02   0.00000000000000E+00   0.00000000000000E+00
      5.83179577590662E-13   0.00000000000000E+00   5.83179577590662E-13   4.28527970043131E-16   8.50000000000000E-02
      8.50000000000000E-02   0.00000000000000E+00   0.00000000000000E+00   0.00000000000000E+00   0.00000000000000E+00
      0.00000000000000E+00  -3.53505883330628E-17
      1.33333333333333E-01
      0.00000000000000E+00   0.00000000000000E+00   0.00000000000000E+00   0.00000000000000E+00  -1.38709333472429E-18
     -4.91064503527767E-18  -6.29773837000197E-18  -7.96206929307148E-16   0.00000000000000E+00   4.92622844119170E-11
      0.00000000000000E+00   0.00000000000000E+00  -1.23169052936748E-12   0.00000000000000E+00  -1.23169052936748E-12
      3.98724811205717E-16   5.00000000000000E-02   4.99999999507119E-02   0.00000000000000E+00   0.00000000000000E+00
      1.23227905599460E-12   0.00000000000000E+00   1.23227905599460E-12   4.24421191950490E-16   1.13333333333333E-01
      1.13333333333333E-01   0.00000000000000E+00   0.00000000000000E+00   0.00000000000000E+00   0.00000000000000E+00
      0.00000000000000E+00  -2.69390738490567E-17
      1.66666666666667E-01
      0.00000000000000E+00   0.00000000000000E+00   0.00000000000000E+00   0.00000000000000E+00  -1.67671103956503E-18
     -4.88057889879464E-18  -6.55728993835967E-18  -7.96348112348972E-16   0.00000000000000E+00   1.07599849517586E-10
      0.00000000000000E+00   0.00000000000000E+00  -2.69011945576211E-12   0.00000000000000E+00  -2.69011945576211E-12
      3.94548612616382E-16   5.00000000000000E-02   4.99999998923745E-02   0.00000000000000E+00   0.00000000000000E+00
      2.69076174019155E-12   0.00000000000000E+00   2.69076174019155E-12   4.20300779028767E-16   1.41666666666667E-01
      1.41666666666667E-01   0.00000000000000E+00   0.00000000000000E+00   0.00000000000000E+00   0.00000000000000E+00
      0.00000000000000E+00  -1.85012792961759E-17
      2.00000000000000E-01
      0.00000000000000E+00   0.00000000000000E+00   0.00000000000000E+00   0.00000000000000E+00  -2.02847865826628E-18
     -4.89957965589989E-18  -6.92805831416616E-18  -7.96489298483860E-16   0.00000000000000E+00   2.39483043249541E-10
      0.00000000000000E+00   0.00000000000000E+00  -5.98715539445794E-12   0.00000000000000E+00  -5.98715539445794E-12
      3.90359931184397E-16   5.00000000000000E-02   4.99999997604915E-02   0.00000000000000E+00   0.00000000000000E+00
      5.98776416221741E-12   0.00000000000000E+00   5.98776416221741E-12   4.16166897529714E-16   1.70000000000000E-01
      1.70000000000000E-01   0.00000000000000E+00   0.00000000000000E+00   0.00000000000000E+00   0.00000000000000E+00
      0.00000000000000E+00  -1.00375302302473E-17
      2.33333333333333E-01
      0.00000000000000E+00   0.00000000000000E+00   0.00000000000000E+00   0.00000000000000E+00   1.13685790700770E-15
     -4.94185342448029E-18   1.13191605358322E-15  -7.96630740625290E-16   0.00000000000000E+00   5.38821460430891E-10
      0.00000000000000E+00   0.00000000000000E+00  -1.34705120362495E-11   0.00000000000000E+00  -1.34705120362495E-11
      3.86159140190901E-16   5.00000000000000E-02   4.99999994611532E-02   0.00000000000000E+00   0.00000000000000E+00
      1.34712340348940E-11   0.00000000000000E+00   1.34712340348940E-11   4.12019807423419E-16   1.98333333333333E-01
      1.98333333333333E-01   0.00000000000000E+00   0.00000000000000E+00   0.00000000000000E+00   0.00000000000000E+00
      0.00000000000000E+00  -1.54820698902906E-18
      2.66666666666667E-01
      0.00000000000000E+00   0.00000000000000E+00   0.00000000000000E+00   0.00000000000000E+00   1.48035832089882E-15
     -4.99738628604338E-18   1.47536093461277E-15  -7.96772762802790E-16   0.00000000000000E+00   1.21998371513638E-09
      0.00000000000000E+00   0.00000000000000E+00  -3.04995790048981E-11   0.00000000000000E+00  -3.04995790048981E-11
      3.81946619894561E-16   5.00000000000000E-02   4.99999987799911E-02   0.00000000000000E+00   0.00000000000000E+00
      3.05002691769736E-11   0.00000000000000E+00   3.05002691769736E-11   4.07859835059784E-16   2.26666666666667E-01
      2.26666666666667E-01   0.00000000000000E+00   0.00000000000000E+00   0.00000000000000E+00   0.00000000000000E+00
      0.00000000000000E+00   6.96630784844598E-18
      3.00000000000000E-01
      0.00000000000000E+00   0.00000000000000E+00   0.00000000000000E+00   0.00000000000000E+00   1.80364581506884E-15
     -5.06166902163792E-18   1.79858414604720E-15  -7.96915787222649E-16   0.00000000000000E+00   2.77205908956203E-09
      0.00000000000000E+00   0.00000000000000E+00  -6.93014215226026E-11   0.00000000000000E+00  -6.93014215226026E-11
      3.77722764176442E-16   5.00000000000000E-02   4.99999972279159E-02   0.00000000000000E+00   0.00000000000000E+00
      6.93021368311400E-11   0.00000000000000E+00   6.93021368311400E-11   4.03687348736845E-16   2.55000000000000E-01
      2.55000000000000E-01   0.00000000000000E+00   0.00000000000000E+00   0.00000000000000E+00   0.00000000000000E+00
      0.00000000000000E+00   1.55056743093602E-17
      3.33333333333333E-01
      0.00000000000000E+00   0.00000000000000E+00   0.00000000000000E+00   0.00000000000000E+00   2.63323400467010E-15
     -5.13248263363907E-18   2.62810152203646E-15  -7.97060373349008E-16   0.00000000000000E+00   6.30995879036826E-09
      0.00000000000000E+00   0.00000000000000E+00  -1.57748963580623E-10   0.00000000000000E+00  -1.57748963580623E-10
      3.73488000276772E-16   5.00000000000000E-02   4.99999936900163E-02   0.00000000000000E+00   0.00000000000000E+00
      1.57749586731887E-10   0.00000000000000E+00   1.57749586731887E-10   3.99502742099472E-16   2.83333333333333E-01
      2.83333333333333E-01   0.00000000000000E+00   0.00000000000000E+00   0.00000000000000E+00   0.00000000000000E+00
      0.00000000000000E+00   2.40696309727631E-17
      3.66666666666667E-01
      0.00000000000000E+00   0.00000000000000E+00   0.00000000000000E+00   0.00000000000000E+00   3.69500327782828E-15
     -5.20860468413299E-18   3.68979467314414E-15  -7.97207276507066E-16   0.00000000000000E+00   1.43721762199049E-08
      0.00000000000000E+00   0.00000000000000E+00  -3.59304375771975E-10   0.00000000000000E+00  -3.59304375771975E-10
      3.69242822124633E-16   5.00000000000000E-02   4.99999856277990E-02   0.00000000000000E+00   0.00000000000000E+00
      3.59305012755115E-10   0.00000000000000E+00   3.59305012755115E-10   3.95306428664024E-16   3.11666666666667E-01
      3.11666666666667E-01   0.00000000000000E+00   0.00000000000000E+00   0.00000000000000E+00   0.00000000000000E+00
      0.00000000000000E+00   3.26580257184085E-17
      4.00000000000000E-01
      0.00000000000000E+00   0.00000000000000E+00   0.00000000000000E+00   0.00000000000000E+00   4.84191104647438E-15
     -5.28938319866119E-18   4.83662166327572E-15  -7.97357539983243E-16   0.00000000000000E+00   3.27254757840557E-08
      0.00000000000000E+00   0.00000000000000E+00  -8.18136888824716E-10   0.00000000000000E+00  -8.18136888824716E-10
      3.64987838657811E-16   5.00000000000000E-02   4.99999672744996E-02   0.00000000000000E+00   0.00000000000000E+00
      8.18137582307929E-10   0.00000000000000E+00   8.18137582307929E-10   3.91098849567720E-16   3.40000000000000E-01
      3.40000000000000E-01   0.00000000000000E+00   0.00000000000000E+00   0.00000000000000E+00   0.00000000000000E+00
      0.00000000000000E+00   4.12708517577116E-17
      4.33333333333333E-01
      0.00000000000000E+00   0.00000000000000E+00   0.00000000000000E+00   0.00000000000000E+00   5.87044725589614E-15
     -5.37441797692741E-18   5.86507283791921E-15  -7.97512648439564E-16   0.00000000000000E+00   7.44245263936861E-08
      0.00000000000000E+00   0.00000000000000E+00  -1.86061315108567E-09   0.00000000000000E+00  -1.86061315108567E-09
      3.60723841209553E-16   5.00000000000000E-02   4.99999255754491E-02   0.00000000000000E+00   0.00000000000000E+00
      1.86061378414734E-09   0.00000000000000E+00   1.86061378414734E-09   3.86880496193730E-16   3.68333333333333E-01
      3.68333333333333E-01   0.00000000000000E+00   0.00000000000000E+00   0.00000000000000E+00   0.00000000000000E+00
      0.00000000000000E+00   4.99083110362804E-17
      4.66666666666667E-01
      0.00000000000000E+00   0.00000000000000E+00   0.00000000000000E+00   0.00000000000000E+00   6.39936868674080E-15
     -5.46336252467389E-18   6.39390532421613E-15  -7.97674800252414E-16   0.00000000000000E+00   1.68881652381631E-07
      0.00000000000000E+00   0.00000000000000E+00  -4.22204131832626E-09   0.00000000000000E+00  -4.22204131832626E-09
      3.56451900128295E-16   5.00000000000000E-02   4.99998311183233E-02   0.00000000000000E+00   0.00000000000000E+00
      4.22204193449120E-09   0.00000000000000E+00   4.22204193449120E-09   3.82651950012194E-16   3.96666666666667E-01
      3.96666666666667E-01   0.00000000000000E+00   0.00000000000000E+00   0.00000000000000E+00   0.00000000000000E+00
      0.00000000000000E+00   5.85709501119225E-17
      5.00000000000000E-01
      0.00000000000000E+00   0.00000000000000E+00   0.00000000000000E+00   0.00000000000000E+00   5.96585064178327E-15
     -5.55580957280976E-18   5.96029483221046E-15  -7.97847422099679E-16   0.00000000000000E+00   3.81973392091058E-07
      0.00000000000000E+00   0.00000000000000E+00  -9.54933478718886E-09   0.00000000000000E+00  -9.54933478718886E-09
      3.52173513570258E-16   5.00000000000000E-02   4.99996180265837E-02   0.00000000000000E+00   0.00000000000000E+00
      9.54933542580755E-09   0.00000000000000E+00   9.54933542580755E-09   3.78413944977572E-16   4.25000000000000E-01
      4.25000000000000E-01   0.00000000000000E+00   0.00000000000000E+00   0.00000000000000E+00   0.00000000000000E+00
      0.00000000000000E+00   6.72599635518455E-17
      5.33333333333333E-01
      0.00000000000000E+00   0.00000000000000E+00   0.00000000000000E+00   0.00000000000000E+00   3.95433249168201E-15
     -5.65101624030618E-18   3.94868147544170E-15  -7.98036199258621E-16   0.00000000000000E+00   8.60587229684542E-07
      0.00000000000000E+00   0.00000000000000E+00  -2.15146807291724E-08   0.00000000000000E+00  -2.15146807291724E-08
      3.47890858123138E-16   5.00000000000000E-02   4.99991394127462E-02   0.00000000000000E+00   0.00000000000000E+00
      2.15146813866322E-08   0.00000000000000E+00   2.15146813866322E-08   3.74167465825159E-16   4.53333333333333E-01
      4.53333333333333E-01   0.00000000000000E+00   0.00000000000000E+00   0.00000000000000E+00   0.00000000000000E+00
      0.00000000000000E+00   7.59778753103233E-17
      5.66666666666667E-01
      0.00000000000000E+00   0.00000000000000E+00   0.00000000000000E+00   0.00000000000000E+00  -3.51932432303038E-16
     -5.74772677492925E-18  -3.57680159077968E-16  -7.98251238495273E-16   0.00000000000000E+00   1.93104335099126E-06
      0.00000000000000E+00   0.00000000000000E+00  -4.82760838264636E-08   0.00000000000000E+00  -4.82760838264636E-08
      3.43607246385898E-16   5.00000000000000E-02   4.99980689566251E-02   0.00000000000000E+00   0.00000000000000E+00
      4.82760843525328E-08   0.00000000000000E+00   4.82760843525328E-08   3.69913915956173E-16   4.81666666666667E-01
      4.81666666666667E-01   0.00000000000000E+00   0.00000000000000E+00   0.00000000000000E+00   0.00000000000000E+00
      0.00000000000000E+00   8.47300761532012E-17
      6.00000000000000E-01
      0.00000000000000E+00   0.00000000000000E+00   0.00000000000000E+00   0.00000000000000E+00  -9.83472239170665E-15
     -5.84597533629609E-18  -9.84056836704295E-15  -7.98511631490450E-16   0.00000000000000E+00   4.30917782911852E-06
      0.00000000000000E+00   0.00000000000000E+00  -1.07729445742177E-07   0.00000000000000E+00  -1.07729445742177E-07
      3.39327988659322E-16   5.00000000000000E-02   4.99956908221471E-02   0.00000000000000E+00   0.00000000000000E+00
      1.07729446251112E-07   0.00000000000000E+00   1.07729446251112E-07   3.65655429052016E-16   5.10000000000000E-01
      5.10000000000000E-01   0.00000000000000E+00   0.00000000000000E+00   0.00000000000000E+00   0.00000000000000E+00
      0.00000000000000E+00   9.35282137791148E-17
      6.33333333333333E-01
      0.00000000000000E+00   0.00000000000000E+00   0.00000000000000E+00   0.00000000000000E+00  -3.23653362498517E-14
     -5.94710072760951E-18  -3.23712833505794E-14  -7.98855101217623E-16   0.00000000000000E+00   9.53022892848738E-06
      0.00000000000000E+00   0.00000000000000E+00  -2.38255723157035E-07   0.00000000000000E+00  -2.38255723157035E-07
      3.35062025247419E-16   5.00000000000000E-02   4.99904697710478E-02   0.00000000000000E+00   0.00000000000000E+00
      2.38255723861478E-07   0.00000000000000E+00   2.38255723861478E-07   3.61395503017283E-16   5.38333333333333E-01
      5.38333333333333E-01   0.00000000000000E+00   0.00000000000000E+00   0.00000000000000E+00   0.00000000000000E+00
      0.00000000000000E+00   1.02397572952922E-16
      6.66666666666667E-01
      0.00000000000000E+00   0.00000000000000E+00   0.00000000000000E+00   0.00000000000000E+00  -9.27404289197037E-14
     -6.05172188306345E-18  -9.27464806415867E-14  -7.99358338518930E-16   0.00000000000000E+00   2.07957885347125E-05
      0.00000000000000E+00   0.00000000000000E+00  -5.19894713335200E-07   0.00000000000000E+00  -5.19894713335200E-07
      3.30824971715623E-16   5.00000000000000E-02   4.99792042114417E-02   0.00000000000000E+00   0.00000000000000E+00
      5.19894713947613E-07   0.00000000000000E+00   5.19894713947613E-07   3.57140395361237E-16   5.66666666666667E-01
      5.66666666666667E-01   0.00000000000000E+00   0.00000000000000E+00   0.00000000000000E+00   0.00000000000000E+00
      0.00000000000000E+00   1.11392971442071E-16
      7.00000000000000E-01
      0.00000000000000E+00   0.00000000000000E+00   0.00000000000000E+00   0.00000000000000E+00  -2.70796650711260E-13
     -6.15978867430221E-18  -2.70802810499935E-13  -8.00177242640357E-16   0.00000000000000E+00   4.46916365329811E-05
      0.00000000000000E+00   0.00000000000000E+00  -1.11729091330840E-06   0.00000000000000E+00  -1.11729091330840E-06
      3.26644466308038E-16   5.00000000000000E-02   4.99553083634435E-02   0.00000000000000E+00   0.00000000000000E+00
      1.11729091392724E-06   0.00000000000000E+00   1.11729091392724E-06   3.52902025780562E-16   5.95000000000000E-01
      5.95000000000000E-01   0.00000000000000E+00   0.00000000000000E+00   0.00000000000000E+00   0.00000000000000E+00
      0.00000000000000E+00   1.20630750551753E-16
      7.33333333333333E-01
      0.00000000000000E+00   0.00000000000000E+00   0.00000000000000E+00   0.00000000000000E+00  -7.77771509684006E-13
     -6.27245266752210E-18  -7.77777782136673E-13  -8.01613898047001E-16   0.00000000000000E+00   9.35916579298472E-05
      0.00000000000000E+00   0.00000000000000E+00  -2.33979144839435E-06   0.00000000000000E+00  -2.33979144839435E-06
      3.22567623869318E-16   5.00000000000000E-02   4.99064083420467E-02   0.00000000000000E+00   0.00000000000000E+00
      2.33979144867461E-06   0.00000000000000E+00   2.33979144867461E-06   3.48703470083154E-16   6.23333333333333E-01
      6.23333333333333E-01   0.00000000000000E+00   0.00000000000000E+00   0.00000000000000E+00   0.00000000000000E+00
      0.00000000000000E+00   1.30342804094530E-16
      7.66666666666667E-01
      0.00000000000000E+00   0.00000000000000E+00   0.00000000000000E+00   0.00000000000000E+00  -1.49776670692502E-12
     -6.39599310738161E-18  -1.49777310291813E-12  -8.04173619649468E-16   0.00000000000000E+00   1.84586243498612E-04
      0.00000000000000E+00   0.00000000000000E+00  -4.61465608961580E-06   0.00000000000000E+00  -4.61465608961580E-06
      3.18663494080321E-16   5.00000000000000E-02   4.98154137564778E-02   0.00000000000000E+00   0.00000000000000E+00
      4.61465608514348E-06   0.00000000000000E+00   4.61465608514348E-06   3.44586483389783E-16   6.51666666666667E-01
      6.51666666666667E-01   0.00000000000000E+00   0.00000000000000E+00   0.00000000000000E+00   0.00000000000000E+00
      0.00000000000000E+00   1.40923642179365E-16
      8.00000000000000E-01
      0.00000000000000E+00   0.00000000000000E+00   0.00000000000000E+00   0.00000000000000E+00   1.22024581749588E-12
     -6.53127806723655E-18   1.22023928621781E-12  -8.08513855061963E-16   0.00000000000000E+00   3.30040556816986E-04
      0.00000000000000E+00   0.00000000000000E+00  -8.25101393635365E-06   0.00000000000000E+00  -8.25101393635365E-06
      3.15007502854388E-16   5.00000000000000E-02   4.96699594431593E-02   0.00000000000000E+00   0.00000000000000E+00
      8.25101389866904E-06   0.00000000000000E+00   8.25101389866904E-06   3.40614784202850E-16   6.80000000000000E-01
      6.80000000000000E-01   0.00000000000000E+00   0.00000000000000E+00   0.00000000000000E+00   0.00000000000000E+00
      0.00000000000000E+00   1.52891568004723E-16
      8.33333333333333E-01
      0.00000000000000E+00   0.00000000000000E+00   0.00000000000000E+00   0.00000000000000E+00   1.45306590604568E-11
     -6.66676551349305E-18   1.45306523936912E-11  -8.15221835261146E-16   0.00000000000000E+00   5.26096232232968E-04
      0.00000000000000E+00   0.00000000000000E+00  -1.31524058451512E-05   0.00000000000000E+00  -1.31524058451512E-05
      3.11650284446449E-16   5.00000000000000E-02   4.94739037677430E-02   0.00000000000000E+00   0.00000000000000E+00
      1.31524057464763E-05   0.00000000000000E+00   1.31524057464763E-05   3.36860414183884E-16   7.08333333333333E-01
      7.08333333333333E-01   0.00000000000000E+00   0.00000000000000E+00   0.00000000000000E+00   0.00000000000000E+00
      0.00000000000000E+00   1.66711136630816E-16
      8.66666666666667E-01
      0.00000000000000E+00   0.00000000000000E+00   0.00000000000000E+00   0.00000000000000E+00   2.98409728005735E-11
     -6.78905285029624E-18   2.98409660115207E-11  -8.24539023144168E-16   0.00000000000000E+00   7.52669260871668E-04
      0.00000000000000E+00   0.00000000000000E+00  -1.88167315484099E-05   0.00000000000000E+00  -1.88167315484099E-05
      3.08595195166566E-16   5.00000000000000E-02   4.92473307391040E-02   0.00000000000000E+00   0.00000000000000E+00
      1.88167314727543E-05   0.00000000000000E+00   1.88167314727543E-05   3.33372939837121E-16   7.36666666666667E-01
      7.36666666666667E-01   0.00000000000000E+00   0.00000000000000E+00   0.00000000000000E+00   0.00000000000000E+00
      0.00000000000000E+00   1.82570888140482E-16
      9.00000000000000E-01
      0.00000000000000E+00   0.00000000000000E+00   0.00000000000000E+00   0.00000000000000E+00   3.13578653376082E-11
     -6.89094549753378E-18   3.13578584466627E-11  -8.36309257377857E-16   0.00000000000000E+00   9.85480421055567E-04
      0.00000000000000E+00   0.00000000000000E+00  -2.46370105301812E-05   0.00000000000000E+00  -2.46370105301812E-05
      3.05806229947850E-16   5.00000000000000E-02   4.90145195789197E-02   0.00000000000000E+00   0.00000000000000E+00
      2.46370105149035E-05   0.00000000000000E+00   2.46370105149035E-05   3.30161082094540E-16   7.65000000000000E-01
      7.65000000000000E-01   0.00000000000000E+00   0.00000000000000E+00   0.00000000000000E+00   0.00000000000000E+00
      0.00000000000000E+00   2.00341945335466E-16
      9.33333333333333E-01
      0.00000000000000E+00   0.00000000000000E+00   0.00000000000000E+00   0.00000000000000E+00   2.14000292712167E-11
     -6.97174504551162E-18   2.14000222994716E-11  -8.50154857023558E-16   0.00000000000000E+00   1.20667740634082E-03
      0.00000000000000E+00   0.00000000000000E+00  -3.01669351629859E-05   0.00000000000000E+00  -3.01669351629859E-05
      3.03232541241338E-16   5.00000000000000E-02   4.87933225936341E-02   0.00000000000000E+00   0.00000000000000E+00
      3.01669351578760E-05   0.00000000000000E+00   3.01669351578760E-05   3.27201302687229E-16   7.93333333333333E-01
      7.93333333333333E-01   0.00000000000000E+00   0.00000000000000E+00   0.00000000000000E+00   0.00000000000000E+00
      0.00000000000000E+00   2.19721013094989E-16
      9.66666666666667E-01
      0.00000000000000E+00   0.00000000000000E+00   0.00000000000000E+00   0.00000000000000E+00   1.10582573151421E-11
     -7.03435203211350E-18   1.10582502807901E-11  -8.65660146261194E-16   0.00000000000000E+00   1.40725616210724E-03
      0.00000000000000E+00   0.00000000000000E+00  -3.51814040783556E-05   0.00000000000000E+00  -3.51814040783556E-05
      3.00826374269325E-16   5.00000000000000E-02   4.85927438378674E-02   0.00000000000000E+00   0.00000000000000E+00
      3.51814040505698E-05   0.00000000000000E+00   3.51814040505698E-05   3.24455955844569E-16   8.21666666666667E-01
      8.21666666666667E-01   0.00000000000000E+00   0.00000000000000E+00   0.00000000000000E+00   0.00000000000000E+00
      0.00000000000000E+00   2.40377816147297E-16
      1.00000000000000E+00
      0.00000000000000E+00   0.00000000000000E+00   0.00000000000000E+00   0.00000000000000E+00   4.83986186915397E-12
     -7.08259731393873E-18   4.83985478655666E-12  -8.82464452683721E-16   0.00000000000000E+00   1.58445947459394E-03
      0.00000000000000E+00   0.00000000000000E+00  -3.96114868744253E-05   0.00000000000000E+00  -3.96114868744253E-05
      2.98549620524830E-16   5.00000000000000E-02   4.84155405253805E-02   0.00000000000000E+00   0.00000000000000E+00
      3.96114868623495E-05   0.00000000000000E+00   3.96114868623495E-05   3.21886637801224E-16   8.50000000000000E-01
      8.50000000000000E-01   0.00000000000000E+00   0.00000000000000E+00   0.00000000000000E+00   0.00000000000000E+00
      0.00000000000000E+00   2.62028194357668E-16
}
