DF-ISE text

Info {
  version   = 1.0
  type      = xyplot
  datasets  = [
    "time"
    "Substrate OuterVoltage" "Substrate InnerVoltage" "Substrate QuasiFermiPotential" "Substrate DisplacementCurrent" "Substrate eCurrent"
    "Substrate hCurrent" "Substrate TotalCurrent" "Substrate Charge" "source OuterVoltage" "source InnerVoltage"
    "source QuasiFermiPotential" "source DisplacementCurrent" "source eCurrent" "source hCurrent" "source TotalCurrent"
    "source Charge" "drain OuterVoltage" "drain InnerVoltage" "drain QuasiFermiPotential" "drain DisplacementCurrent"
    "drain eCurrent" "drain hCurrent" "drain TotalCurrent" "drain Charge" "gate OuterVoltage"
    "gate InnerVoltage" "gate QuasiFermiPotential" "gate DisplacementCurrent" "gate eCurrent" "gate hCurrent"
    "gate TotalCurrent" "gate Charge" ]
  functions = [
    Time
    OuterVoltage InnerVoltage QuasiFermiPotential DisplacementCurrent eCurrent
    hCurrent TotalCurrent Charge OuterVoltage InnerVoltage
    QuasiFermiPotential DisplacementCurrent eCurrent hCurrent TotalCurrent
    Charge OuterVoltage InnerVoltage QuasiFermiPotential DisplacementCurrent
    eCurrent hCurrent TotalCurrent Charge OuterVoltage
    InnerVoltage QuasiFermiPotential DisplacementCurrent eCurrent hCurrent
    TotalCurrent Charge ]
}

Data {
      0.00000000000000E+00
      0.00000000000000E+00   0.00000000000000E+00   0.00000000000000E+00   0.00000000000000E+00  -1.79957757906270E-18
     -1.22513174540169E-17  -1.40508950330796E-17  -7.95488044884487E-16   0.00000000000000E+00   3.70026100823024E-12
      0.00000000000000E+00   0.00000000000000E+00  -9.25409924176457E-14   0.00000000000000E+00  -9.25409924176457E-14
      4.14896265076431E-16   5.00000000000000E-02   4.99999999962740E-02   0.00000000000000E+00   0.00000000000000E+00
      9.31451614598179E-14   0.00000000000000E+00   9.31451614598179E-14   4.40326391517537E-16   0.00000000000000E+00
      0.00000000000000E+00   0.00000000000000E+00   0.00000000000000E+00   0.00000000000000E+00   0.00000000000000E+00
      0.00000000000000E+00  -5.97346117094843E-17
      3.33333333333333E-02
      0.00000000000000E+00   0.00000000000000E+00   0.00000000000000E+00   0.00000000000000E+00  -2.03134998762171E-18
     -7.06224287177174E-18  -9.09359285939345E-18  -7.95631326826031E-16   0.00000000000000E+00   6.16985067039913E-12
      0.00000000000000E+00   0.00000000000000E+00  -1.54225403834670E-13   0.00000000000000E+00  -1.54225403834670E-13
      4.10784014468391E-16   5.00000000000000E-02   4.99999999938051E-02   0.00000000000000E+00   0.00000000000000E+00
      1.54884046459495E-13   0.00000000000000E+00   1.54884046459495E-13   4.36270873552577E-16   2.83333333333333E-02
      2.83333333333333E-02   0.00000000000000E+00   0.00000000000000E+00   0.00000000000000E+00   0.00000000000000E+00
      0.00000000000000E+00  -5.14235611949358E-17
      6.66666666666667E-02
      0.00000000000000E+00   0.00000000000000E+00   0.00000000000000E+00   0.00000000000000E+00  -1.78711189622552E-18
     -5.51538434580904E-18  -7.30249624203456E-18  -7.95773967214393E-16   0.00000000000000E+00   1.14117392887865E-11
      0.00000000000000E+00   0.00000000000000E+00  -2.85308049681271E-13   0.00000000000000E+00  -2.85308049681271E-13
      4.06658133940476E-16   5.00000000000000E-02   4.99999999885636E-02   0.00000000000000E+00   0.00000000000000E+00
      2.85883658827788E-13   0.00000000000000E+00   2.85883658827788E-13   4.32202156148135E-16   5.66666666666667E-02
      5.66666666666667E-02   0.00000000000000E+00   0.00000000000000E+00   0.00000000000000E+00   0.00000000000000E+00
      0.00000000000000E+00  -4.30863228742169E-17
      1.00000000000000E-01
      0.00000000000000E+00   0.00000000000000E+00   0.00000000000000E+00   0.00000000000000E+00  -1.08625536405663E-18
     -5.03817085085274E-18  -6.12442621490936E-18  -7.95916080001744E-16   0.00000000000000E+00   2.28722809785294E-11
      0.00000000000000E+00   0.00000000000000E+00  -5.71887409203050E-13   0.00000000000000E+00  -5.71887409203050E-13
      4.02518735374576E-16   5.00000000000000E-02   4.99999999771033E-02   0.00000000000000E+00   0.00000000000000E+00
      5.72496772416397E-13   0.00000000000000E+00   5.72496772416397E-13   4.28119993983026E-16   8.50000000000000E-02
      8.50000000000000E-02   0.00000000000000E+00   0.00000000000000E+00   0.00000000000000E+00   0.00000000000000E+00
      0.00000000000000E+00  -3.47226493558591E-17
      1.33333333333333E-01
      0.00000000000000E+00   0.00000000000000E+00   0.00000000000000E+00   0.00000000000000E+00  -1.63138293035040E-18
     -4.89796596157901E-18  -6.52934889192942E-18  -7.96057794557199E-16   0.00000000000000E+00   4.83695558183794E-11
      0.00000000000000E+00   0.00000000000000E+00  -1.20936514445929E-12   0.00000000000000E+00  -1.20936514445929E-12
      3.98366029120075E-16   5.00000000000000E-02   4.99999999516062E-02   0.00000000000000E+00   0.00000000000000E+00
      1.20990360498397E-12   0.00000000000000E+00   1.20990360498397E-12   4.24024240281713E-16   1.13333333333333E-01
      1.13333333333333E-01   0.00000000000000E+00   0.00000000000000E+00   0.00000000000000E+00   0.00000000000000E+00
      0.00000000000000E+00  -2.63324748445902E-17
      1.66666666666667E-01
      0.00000000000000E+00   0.00000000000000E+00   0.00000000000000E+00   0.00000000000000E+00  -1.74714921854334E-18
     -4.87314082903340E-18  -6.62029004757674E-18  -7.96199264790250E-16   0.00000000000000E+00   1.05685195576395E-10
      0.00000000000000E+00   0.00000000000000E+00  -2.64223844220989E-12   0.00000000000000E+00  -2.64223844220989E-12
      3.94200299012130E-16   5.00000000000000E-02   4.99999998942908E-02   0.00000000000000E+00   0.00000000000000E+00
      2.64287349579276E-12   0.00000000000000E+00   2.64287349579276E-12   4.19914865264877E-16   1.41666666666667E-01
      1.41666666666667E-01   0.00000000000000E+00   0.00000000000000E+00   0.00000000000000E+00   0.00000000000000E+00
      0.00000000000000E+00  -1.79158994867581E-17
      2.00000000000000E-01
      0.00000000000000E+00   0.00000000000000E+00   0.00000000000000E+00   0.00000000000000E+00  -1.69391496376505E-18
     -4.89388557750735E-18  -6.58780054127240E-18  -7.96340679902017E-16   0.00000000000000E+00   2.35325813007976E-10
      0.00000000000000E+00   0.00000000000000E+00  -5.88318854092180E-12   0.00000000000000E+00  -5.88318854092180E-12
      3.90021876495756E-16   5.00000000000000E-02   4.99999997646503E-02   0.00000000000000E+00   0.00000000000000E+00
      5.88380944326832E-12   0.00000000000000E+00   5.88380944326832E-12   4.15791957222593E-16   1.70000000000000E-01
      1.70000000000000E-01   0.00000000000000E+00   0.00000000000000E+00   0.00000000000000E+00   0.00000000000000E+00
      0.00000000000000E+00  -9.47315381633268E-18
      2.33333333333333E-01
      0.00000000000000E+00   0.00000000000000E+00   0.00000000000000E+00   0.00000000000000E+00   9.77794035208685E-16
     -4.93665663203059E-18   9.72857378576654E-16  -7.96482278133475E-16   0.00000000000000E+00   5.29724585108458E-10
      0.00000000000000E+00   0.00000000000000E+00  -1.32431145262296E-11   0.00000000000000E+00  -1.32431145262296E-11
      3.85831119926694E-16   5.00000000000000E-02   4.99999994702517E-02   0.00000000000000E+00   0.00000000000000E+00
      1.32437914232275E-11   0.00000000000000E+00   1.32437914232275E-11   4.11655709122241E-16   1.98333333333333E-01
      1.98333333333333E-01   0.00000000000000E+00   0.00000000000000E+00   0.00000000000000E+00   0.00000000000000E+00
      0.00000000000000E+00  -1.00455091545855E-18
      2.66666666666667E-01
      0.00000000000000E+00   0.00000000000000E+00   0.00000000000000E+00   0.00000000000000E+00   1.25352696055688E-15
     -4.99225904250695E-18   1.24853470151438E-15  -7.96624365331622E-16   0.00000000000000E+00   1.19995481064873E-09
      0.00000000000000E+00   0.00000000000000E+00  -2.99988671670304E-11   0.00000000000000E+00  -2.99988671670304E-11
      3.81628403302679E-16   5.00000000000000E-02   4.99999988000216E-02   0.00000000000000E+00   0.00000000000000E+00
      2.99994875471775E-11   0.00000000000000E+00   2.99994875471775E-11   4.07506396624995E-16   2.26666666666667E-01
      2.26666666666667E-01   0.00000000000000E+00   0.00000000000000E+00   0.00000000000000E+00   0.00000000000000E+00
      0.00000000000000E+00   7.48956540394900E-18
      3.00000000000000E-01
      0.00000000000000E+00   0.00000000000000E+00   0.00000000000000E+00   0.00000000000000E+00   1.57384857928104E-15
     -5.05648374563739E-18   1.56879209553540E-15  -7.96767340991215E-16   0.00000000000000E+00   2.72781514044912E-09
      0.00000000000000E+00   0.00000000000000E+00  -6.81953752753084E-11   0.00000000000000E+00  -6.81953752753084E-11
      3.77414116999148E-16   5.00000000000000E-02   4.99999972721614E-02   0.00000000000000E+00   0.00000000000000E+00
      6.81960044884917E-11   0.00000000000000E+00   6.81960044884917E-11   4.03344354314905E-16   2.55000000000000E-01
      2.55000000000000E-01   0.00000000000000E+00   0.00000000000000E+00   0.00000000000000E+00   0.00000000000000E+00
      0.00000000000000E+00   1.60088696771638E-17
      3.33333333333333E-01
      0.00000000000000E+00   0.00000000000000E+00   0.00000000000000E+00   0.00000000000000E+00   2.35280695458678E-15
     -5.12721865449039E-18   2.34767973593229E-15  -7.96911736015382E-16   0.00000000000000E+00   6.21188211069220E-09
      0.00000000000000E+00   0.00000000000000E+00  -1.55297063748679E-10   0.00000000000000E+00  -1.55297063748679E-10
      3.73188681972519E-16   5.00000000000000E-02   4.99999937880946E-02   0.00000000000000E+00   0.00000000000000E+00
      1.55297749614997E-10   0.00000000000000E+00   1.55297749614997E-10   3.99169956261094E-16   2.83333333333333E-01
      2.83333333333333E-01   0.00000000000000E+00   0.00000000000000E+00   0.00000000000000E+00   0.00000000000000E+00
      0.00000000000000E+00   2.45530977817641E-17
      3.66666666666667E-01
      0.00000000000000E+00   0.00000000000000E+00   0.00000000000000E+00   0.00000000000000E+00   3.40510167746314E-15
     -5.20326642296019E-18   3.39989841104018E-15  -7.97058269621925E-16   0.00000000000000E+00   1.41540514800249E-08
      0.00000000000000E+00   0.00000000000000E+00  -3.53851318000897E-10   0.00000000000000E+00  -3.53851318000897E-10
      3.68952578540492E-16   5.00000000000000E-02   4.99999858459253E-02   0.00000000000000E+00   0.00000000000000E+00
      3.53851899369542E-10   0.00000000000000E+00   3.53851899369542E-10   3.94983605616293E-16   3.11666666666667E-01
      3.11666666666667E-01   0.00000000000000E+00   0.00000000000000E+00   0.00000000000000E+00   0.00000000000000E+00
      0.00000000000000E+00   3.31220854651383E-17
      4.00000000000000E-01
      0.00000000000000E+00   0.00000000000000E+00   0.00000000000000E+00   0.00000000000000E+00   4.63357972360393E-15
     -5.28400493733472E-18   4.62829571866659E-15  -7.97207939177628E-16   0.00000000000000E+00   3.22400272826031E-08
      0.00000000000000E+00   0.00000000000000E+00  -8.06000705666687E-10   0.00000000000000E+00  -8.06000705666687E-10
      3.64706391479507E-16   5.00000000000000E-02   4.99999677599496E-02   0.00000000000000E+00   0.00000000000000E+00
      8.06001288685416E-10   0.00000000000000E+00   8.06001288685416E-10   3.90785736586870E-16   3.40000000000000E-01
      3.40000000000000E-01   0.00000000000000E+00   0.00000000000000E+00   0.00000000000000E+00   0.00000000000000E+00
      0.00000000000000E+00   4.17158111112474E-17
      4.33333333333333E-01
      0.00000000000000E+00   0.00000000000000E+00   0.00000000000000E+00   0.00000000000000E+00   5.88594274712332E-15
     -5.36903049986861E-18   5.88057371662345E-15  -7.97362170487933E-16   0.00000000000000E+00   7.33425052449904E-08
      0.00000000000000E+00   0.00000000000000E+00  -1.83356260246697E-09   0.00000000000000E+00  -1.83356260246697E-09
      3.60450875583998E-16   5.00000000000000E-02   4.99999266574718E-02   0.00000000000000E+00   0.00000000000000E+00
      1.83356321969551E-09   0.00000000000000E+00   1.83356321969551E-09   3.86576831397194E-16   3.68333333333333E-01
      3.68333333333333E-01   0.00000000000000E+00   0.00000000000000E+00   0.00000000000000E+00   0.00000000000000E+00
      0.00000000000000E+00   5.03344635067419E-17
      4.66666666666667E-01
      0.00000000000000E+00   0.00000000000000E+00   0.00000000000000E+00   0.00000000000000E+00   6.83832486665981E-15
     -5.45799004432725E-18   6.83286687661548E-15  -7.97523085536909E-16   0.00000000000000E+00   1.66471422780423E-07
      0.00000000000000E+00   0.00000000000000E+00  -4.16178558004318E-09   0.00000000000000E+00  -4.16178558004318E-09
      3.56187051542244E-16   5.00000000000000E-02   4.99998335285544E-02   0.00000000000000E+00   0.00000000000000E+00
      4.16178613133744E-09   0.00000000000000E+00   4.16178613133744E-09   3.82357455273306E-16   3.96666666666667E-01
      3.96666666666667E-01   0.00000000000000E+00   0.00000000000000E+00   0.00000000000000E+00   0.00000000000000E+00
      0.00000000000000E+00   5.89785787213582E-17
      5.00000000000000E-01
      0.00000000000000E+00   0.00000000000000E+00   0.00000000000000E+00   0.00000000000000E+00   6.98617223165752E-15
     -5.55046499464766E-18   6.98062176666288E-15  -7.97694009939067E-16   0.00000000000000E+00   3.76622775097103E-07
      0.00000000000000E+00   0.00000000000000E+00  -9.41556938876246E-09   0.00000000000000E+00  -9.41556938876246E-09
      3.51916354396702E-16   5.00000000000000E-02   4.99996233772022E-02   0.00000000000000E+00   0.00000000000000E+00
      9.41556995322590E-09   0.00000000000000E+00   9.41556995322590E-09   3.78128315220854E-16   4.25000000000000E-01
      4.25000000000000E-01   0.00000000000000E+00   0.00000000000000E+00   0.00000000000000E+00   0.00000000000000E+00
      0.00000000000000E+00   6.76493403215102E-17
      5.33333333333333E-01
      0.00000000000000E+00   0.00000000000000E+00   0.00000000000000E+00   0.00000000000000E+00   5.89235194974571E-15
     -5.64565164860384E-18   5.88670629809710E-15  -7.97880492207167E-16   0.00000000000000E+00   8.48854074809483E-07
      0.00000000000000E+00   0.00000000000000E+00  -2.12213518367612E-08   0.00000000000000E+00  -2.12213518367612E-08
      3.47640883367041E-16   5.00000000000000E-02   4.99991511459026E-02   0.00000000000000E+00   0.00000000000000E+00
      2.12213524688037E-08   0.00000000000000E+00   2.12213524688037E-08   3.73890355894677E-16   4.53333333333333E-01
      4.53333333333333E-01   0.00000000000000E+00   0.00000000000000E+00   0.00000000000000E+00   0.00000000000000E+00
      0.00000000000000E+00   7.63492529454486E-17
      5.66666666666667E-01
      0.00000000000000E+00   0.00000000000000E+00   0.00000000000000E+00   0.00000000000000E+00   2.52737755174524E-15
     -5.74231282812466E-18   2.52163523891711E-15  -7.98092446309015E-16   0.00000000000000E+00   1.90567285848428E-06
      0.00000000000000E+00   0.00000000000000E+00  -4.76418214386393E-08   0.00000000000000E+00  -4.76418214386393E-08
      3.43363856509962E-16   5.00000000000000E-02   4.99980943271191E-02   0.00000000000000E+00   0.00000000000000E+00
      4.76418219889769E-08   0.00000000000000E+00   4.76418219889769E-08   3.69644925887567E-16   4.81666666666667E-01
      4.81666666666667E-01   0.00000000000000E+00   0.00000000000000E+00   0.00000000000000E+00   0.00000000000000E+00
      0.00000000000000E+00   8.50836639114857E-17
      6.00000000000000E-01
      0.00000000000000E+00   0.00000000000000E+00   0.00000000000000E+00   0.00000000000000E+00  -5.27776556639070E-15
     -5.84077211451426E-18  -5.28360633850521E-15  -7.98348660396661E-16   0.00000000000000E+00   4.25445498011580E-06
      0.00000000000000E+00   0.00000000000000E+00  -1.06361374527066E-07   0.00000000000000E+00  -1.06361374527066E-07
      3.39090462070261E-16   5.00000000000000E-02   4.99957455449976E-02   0.00000000000000E+00   0.00000000000000E+00
      1.06361375082959E-07   0.00000000000000E+00   1.06361375082959E-07   3.65394086237424E-16   5.10000000000000E-01
      5.10000000000000E-01   0.00000000000000E+00   0.00000000000000E+00   0.00000000000000E+00   0.00000000000000E+00
      0.00000000000000E+00   9.38641120889750E-17
      6.33333333333333E-01
      0.00000000000000E+00   0.00000000000000E+00   0.00000000000000E+00   0.00000000000000E+00  -2.44809496365074E-14
     -5.94246683194674E-18  -2.44868921033393E-14  -7.98686350102568E-16   0.00000000000000E+00   9.41134191970386E-06
      0.00000000000000E+00   0.00000000000000E+00  -2.35283548010960E-07   0.00000000000000E+00  -2.35283548010960E-07
      3.34829473147544E-16   5.00000000000000E-02   4.99905886580581E-02   0.00000000000000E+00   0.00000000000000E+00
      2.35283548558011E-07   0.00000000000000E+00   2.35283548558011E-07   3.61141239980357E-16   5.38333333333333E-01
      5.38333333333333E-01   0.00000000000000E+00   0.00000000000000E+00   0.00000000000000E+00   0.00000000000000E+00
      0.00000000000000E+00   1.02715636974668E-16
      6.66666666666667E-01
      0.00000000000000E+00   0.00000000000000E+00   0.00000000000000E+00   0.00000000000000E+00  -7.78407643611097E-14
     -6.04770241867814E-18  -7.78468120635284E-14  -7.99181407985219E-16   0.00000000000000E+00   2.05333223920305E-05
      0.00000000000000E+00   0.00000000000000E+00  -5.13333059822460E-07   0.00000000000000E+00  -5.13333059822460E-07
      3.30596268109661E-16   5.00000000000000E-02   4.99794666775859E-02   0.00000000000000E+00   0.00000000000000E+00
      5.13333060332760E-07   0.00000000000000E+00   5.13333060332760E-07   3.56892533988456E-16   5.66666666666667E-01
      5.66666666666667E-01   0.00000000000000E+00   0.00000000000000E+00   0.00000000000000E+00   0.00000000000000E+00
      0.00000000000000E+00   1.11692605887103E-16
      7.00000000000000E-01
      0.00000000000000E+00   0.00000000000000E+00   0.00000000000000E+00   0.00000000000000E+00  -2.40405607999694E-13
     -6.15623961129060E-18  -2.40411764239305E-13  -7.99988519260130E-16   0.00000000000000E+00   4.41026808652766E-05
      0.00000000000000E+00   0.00000000000000E+00  -1.10256702162279E-06   0.00000000000000E+00  -1.10256702162279E-06
      3.26418142040054E-16   5.00000000000000E-02   4.99558973191127E-02   0.00000000000000E+00   0.00000000000000E+00
      1.10256702218232E-06   0.00000000000000E+00   1.10256702218232E-06   3.52659777606615E-16   5.95000000000000E-01
      5.95000000000000E-01   0.00000000000000E+00   0.00000000000000E+00   0.00000000000000E+00   0.00000000000000E+00
      0.00000000000000E+00   1.20910599613459E-16
      7.33333333333333E-01
      0.00000000000000E+00   0.00000000000000E+00   0.00000000000000E+00   0.00000000000000E+00  -7.17788112181596E-13
     -6.26924626145766E-18  -7.17794381427858E-13  -8.01408064750182E-16   0.00000000000000E+00   9.22880313775181E-05
      0.00000000000000E+00   0.00000000000000E+00  -2.30720078459817E-06   0.00000000000000E+00  -2.30720078459817E-06
      3.22341750514098E-16   5.00000000000000E-02   4.99077119686005E-02   0.00000000000000E+00   0.00000000000000E+00
      2.30720078485298E-06   0.00000000000000E+00   2.30720078485298E-06   3.48465943602205E-16   6.23333333333333E-01
      6.23333333333333E-01   0.00000000000000E+00   0.00000000000000E+00   0.00000000000000E+00   0.00000000000000E+00
      0.00000000000000E+00   1.30600370633880E-16
      7.66666666666667E-01
      0.00000000000000E+00   0.00000000000000E+00   0.00000000000000E+00   0.00000000000000E+00  -1.44555261424546E-12
     -6.39284143099803E-18  -1.44555900708689E-12  -8.03944232753394E-16   0.00000000000000E+00   1.81929214567629E-04
      0.00000000000000E+00   0.00000000000000E+00  -4.54823036623349E-06   0.00000000000000E+00  -4.54823036623349E-06
      3.18435767117954E-16   5.00000000000000E-02   4.98180707854103E-02   0.00000000000000E+00   0.00000000000000E+00
      4.54823036192430E-06   0.00000000000000E+00   4.54823036192430E-06   3.44352760312183E-16   6.51666666666667E-01
      6.51666666666667E-01   0.00000000000000E+00   0.00000000000000E+00   0.00000000000000E+00   0.00000000000000E+00
      0.00000000000000E+00   1.41155705323259E-16
      8.00000000000000E-01
      0.00000000000000E+00   0.00000000000000E+00   0.00000000000000E+00   0.00000000000000E+00   1.02211854487888E-12
     -6.52789947192806E-18   1.02211201697941E-12  -8.08255635882938E-16   0.00000000000000E+00   3.25311428145078E-04
      0.00000000000000E+00   0.00000000000000E+00  -8.13278571852744E-06   0.00000000000000E+00  -8.13278571852744E-06
      3.14775770271506E-16   5.00000000000000E-02   4.96746885718327E-02   0.00000000000000E+00   0.00000000000000E+00
      8.13278568296627E-06   0.00000000000000E+00   8.13278568296627E-06   3.40383970111149E-16   6.80000000000000E-01
      6.80000000000000E-01   0.00000000000000E+00   0.00000000000000E+00   0.00000000000000E+00   0.00000000000000E+00
      0.00000000000000E+00   1.53095895500285E-16
      8.33333333333333E-01
      0.00000000000000E+00   0.00000000000000E+00   0.00000000000000E+00   0.00000000000000E+00   1.33804571299628E-11
     -6.66303701494314E-18   1.33804504669258E-11  -8.14933139404633E-16   0.00000000000000E+00   5.18821358062158E-04
      0.00000000000000E+00   0.00000000000000E+00  -1.29705339876436E-05   0.00000000000000E+00  -1.29705339876436E-05
      3.11413232813136E-16   5.00000000000000E-02   4.94811786419154E-02   0.00000000000000E+00   0.00000000000000E+00
      1.29705338952076E-05   0.00000000000000E+00   1.29705338952076E-05   3.36631639749646E-16   7.08333333333333E-01
      7.08333333333333E-01   0.00000000000000E+00   0.00000000000000E+00   0.00000000000000E+00   0.00000000000000E+00
      0.00000000000000E+00   1.66888266841851E-16
      8.66666666666667E-01
      0.00000000000000E+00   0.00000000000000E+00   0.00000000000000E+00   0.00000000000000E+00   2.81291811617615E-11
     -6.78507566315305E-18   2.81291743766859E-11  -8.24221463161180E-16   0.00000000000000E+00   7.42842425463179E-04
      0.00000000000000E+00   0.00000000000000E+00  -1.85710606601333E-05   0.00000000000000E+00  -1.85710606601333E-05
      3.08352552376755E-16   5.00000000000000E-02   4.92571575745141E-02   0.00000000000000E+00   0.00000000000000E+00
      1.85710605899253E-05   0.00000000000000E+00   1.85710605899253E-05   3.33145336028409E-16   7.36666666666667E-01
      7.36666666666667E-01   0.00000000000000E+00   0.00000000000000E+00   0.00000000000000E+00   0.00000000000000E+00
      0.00000000000000E+00   1.82723574756014E-16
      9.00000000000000E-01
      0.00000000000000E+00   0.00000000000000E+00   0.00000000000000E+00   0.00000000000000E+00   2.97742918341285E-11
     -6.88687706467705E-18   2.97742849472514E-11  -8.35966101863688E-16   0.00000000000000E+00   9.73465216897414E-04
      0.00000000000000E+00   0.00000000000000E+00  -2.43366304258168E-05   0.00000000000000E+00  -2.43366304258168E-05
      3.05558448842401E-16   5.00000000000000E-02   4.90265347830795E-02   0.00000000000000E+00   0.00000000000000E+00
      2.43366304113879E-05   0.00000000000000E+00   2.43366304113879E-05   3.29933795875694E-16   7.65000000000000E-01
      7.65000000000000E-01   0.00000000000000E+00   0.00000000000000E+00   0.00000000000000E+00   0.00000000000000E+00
      0.00000000000000E+00   2.00473857145594E-16
      9.33333333333333E-01
      0.00000000000000E+00   0.00000000000000E+00   0.00000000000000E+00   0.00000000000000E+00   2.03973480309825E-11
     -6.96774301579600E-18   2.03973410632395E-11  -8.49789540887967E-16   0.00000000000000E+00   1.19298670607113E-03
      0.00000000000000E+00   0.00000000000000E+00  -2.98246676553313E-05   0.00000000000000E+00  -2.98246676553313E-05
      3.02980368273520E-16   5.00000000000000E-02   4.88070132939054E-02   0.00000000000000E+00   0.00000000000000E+00
      2.98246676509352E-05   0.00000000000000E+00   2.98246676509352E-05   3.26973650102699E-16   7.93333333333333E-01
      7.93333333333333E-01   0.00000000000000E+00   0.00000000000000E+00   0.00000000000000E+00   0.00000000000000E+00
      0.00000000000000E+00   2.19835522511748E-16
      9.66666666666667E-01
      0.00000000000000E+00   0.00000000000000E+00   0.00000000000000E+00   0.00000000000000E+00   1.05653432985489E-11
     -7.03051657063535E-18   1.05653362680323E-11  -8.65275941811136E-16   0.00000000000000E+00   1.39237001753766E-03
      0.00000000000000E+00   0.00000000000000E+00  -3.48092504450517E-05   0.00000000000000E+00  -3.48092504450517E-05
      3.00570586779823E-16   5.00000000000000E-02   4.86076299824387E-02   0.00000000000000E+00   0.00000000000000E+00
      3.48092504362137E-05   0.00000000000000E+00   3.48092504362137E-05   3.24227510479664E-16   8.21666666666667E-01
      8.21666666666667E-01   0.00000000000000E+00   0.00000000000000E+00   0.00000000000000E+00   0.00000000000000E+00
      0.00000000000000E+00   2.40477844551649E-16
      1.00000000000000E+00
      0.00000000000000E+00   0.00000000000000E+00   0.00000000000000E+00   0.00000000000000E+00   4.63285773645505E-12
     -7.07893444762999E-18   4.63285065752060E-12  -8.82064549562579E-16   0.00000000000000E+00   1.56875667457525E-03
      0.00000000000000E+00   0.00000000000000E+00  -3.92189168700729E-05   0.00000000000000E+00  -3.92189168700729E-05
      2.98290892887991E-16   5.00000000000000E-02   4.84312433254008E-02   0.00000000000000E+00   0.00000000000000E+00
      3.92189168617559E-05   0.00000000000000E+00   3.92189168617559E-05   3.21657221050007E-16   8.50000000000000E-01
      8.50000000000000E-01   0.00000000000000E+00   0.00000000000000E+00   0.00000000000000E+00   0.00000000000000E+00
      0.00000000000000E+00   2.62116435624578E-16
}
