DF-ISE text

Info {
  version   = 1.0
  type      = xyplot
  datasets  = [
    "time"
    "Substrate OuterVoltage" "Substrate InnerVoltage" "Substrate QuasiFermiPotential" "Substrate DisplacementCurrent" "Substrate eCurrent"
    "Substrate hCurrent" "Substrate TotalCurrent" "Substrate Charge" "source OuterVoltage" "source InnerVoltage"
    "source QuasiFermiPotential" "source DisplacementCurrent" "source eCurrent" "source hCurrent" "source TotalCurrent"
    "source Charge" "drain OuterVoltage" "drain InnerVoltage" "drain QuasiFermiPotential" "drain DisplacementCurrent"
    "drain eCurrent" "drain hCurrent" "drain TotalCurrent" "drain Charge" "gate OuterVoltage"
    "gate InnerVoltage" "gate QuasiFermiPotential" "gate DisplacementCurrent" "gate eCurrent" "gate hCurrent"
    "gate TotalCurrent" "gate Charge" ]
  functions = [
    Time
    OuterVoltage InnerVoltage QuasiFermiPotential DisplacementCurrent eCurrent
    hCurrent TotalCurrent Charge OuterVoltage InnerVoltage
    QuasiFermiPotential DisplacementCurrent eCurrent hCurrent TotalCurrent
    Charge OuterVoltage InnerVoltage QuasiFermiPotential DisplacementCurrent
    eCurrent hCurrent TotalCurrent Charge OuterVoltage
    InnerVoltage QuasiFermiPotential DisplacementCurrent eCurrent hCurrent
    TotalCurrent Charge ]
}

Data {
      0.00000000000000E+00
      0.00000000000000E+00   0.00000000000000E+00   0.00000000000000E+00   0.00000000000000E+00  -1.70478687927933E-18
     -1.27966057494022E-17  -1.45013926286815E-17  -7.95511495599641E-16   0.00000000000000E+00   3.74027130372688E-12
      0.00000000000000E+00   0.00000000000000E+00  -9.35049151709136E-14   0.00000000000000E+00  -9.35049151709136E-14
      4.15130215869759E-16   5.00000000000000E-02   4.99999999962316E-02   0.00000000000000E+00   0.00000000000000E+00
      9.42051252689051E-14   0.00000000000000E+00   9.42051252689051E-14   4.40584972527803E-16   0.00000000000000E+00
      0.00000000000000E+00   0.00000000000000E+00   0.00000000000000E+00   0.00000000000000E+00   0.00000000000000E+00
      0.00000000000000E+00  -6.02036927979235E-17
      3.33333333333333E-02
      0.00000000000000E+00   0.00000000000000E+00   0.00000000000000E+00   0.00000000000000E+00  -1.90373281708817E-18
     -7.22015348229508E-18  -9.12388629938325E-18  -7.95654529328781E-16   0.00000000000000E+00   6.24176689625398E-12
      0.00000000000000E+00   0.00000000000000E+00  -1.56105051121400E-13   0.00000000000000E+00  -1.56105051121400E-13
      4.11010173599530E-16   5.00000000000000E-02   4.99999999937309E-02   0.00000000000000E+00   0.00000000000000E+00
      1.56658061390399E-13   0.00000000000000E+00   1.56658061390399E-13   4.36522345536488E-16   2.83333333333333E-02
      2.83333333333333E-02   0.00000000000000E+00   0.00000000000000E+00   0.00000000000000E+00   0.00000000000000E+00
      0.00000000000000E+00  -5.18779898072364E-17
      6.66666666666667E-02
      0.00000000000000E+00   0.00000000000000E+00   0.00000000000000E+00   0.00000000000000E+00  -1.72190280786744E-18
     -5.56593076775342E-18  -7.28783357562087E-18  -7.95796931438351E-16   0.00000000000000E+00   1.15507209383354E-11
      0.00000000000000E+00   0.00000000000000E+00  -2.88748554490945E-13   0.00000000000000E+00  -2.88748554490945E-13
      4.06876445238132E-16   5.00000000000000E-02   4.99999999884223E-02   0.00000000000000E+00   0.00000000000000E+00
      2.89478992557671E-13   0.00000000000000E+00   2.89478992557671E-13   4.32446218981875E-16   5.66666666666667E-02
      5.66666666666667E-02   0.00000000000000E+00   0.00000000000000E+00   0.00000000000000E+00   0.00000000000000E+00
      0.00000000000000E+00  -4.35257327816582E-17
      1.00000000000000E-01
      0.00000000000000E+00   0.00000000000000E+00   0.00000000000000E+00   0.00000000000000E+00  -1.02665084560472E-18
     -5.05656619062499E-18  -6.08321703622971E-18  -7.95938820319325E-16   0.00000000000000E+00   2.31549189955079E-11
      0.00000000000000E+00   0.00000000000000E+00  -5.78915126880647E-13   0.00000000000000E+00  -5.78915126880647E-13
      4.02729219322605E-16   5.00000000000000E-02   4.99999999768184E-02   0.00000000000000E+00   0.00000000000000E+00
      5.79634180216554E-13   0.00000000000000E+00   5.79634180216554E-13   4.28356411231168E-16   8.50000000000000E-02
      8.50000000000000E-02   0.00000000000000E+00   0.00000000000000E+00   0.00000000000000E+00   0.00000000000000E+00
      0.00000000000000E+00  -3.51468102344495E-17
      1.33333333333333E-01
      0.00000000000000E+00   0.00000000000000E+00   0.00000000000000E+00   0.00000000000000E+00  -1.47950793582790E-18
     -4.90599441286252E-18  -6.38550234869042E-18  -7.96080330858368E-16   0.00000000000000E+00   4.89627732809599E-11
      0.00000000000000E+00   0.00000000000000E+00  -1.22413957578948E-12   0.00000000000000E+00  -1.22413957578948E-12
      3.98568768776967E-16   5.00000000000000E-02   4.99999999510107E-02   0.00000000000000E+00   0.00000000000000E+00
      1.22482679217432E-12   0.00000000000000E+00   1.22482679217432E-12   4.24252854514222E-16   1.13333333333333E-01
      1.13333333333333E-01   0.00000000000000E+00   0.00000000000000E+00   0.00000000000000E+00   0.00000000000000E+00
      0.00000000000000E+00  -2.67412924328192E-17
      1.66666666666667E-01
      0.00000000000000E+00   0.00000000000000E+00   0.00000000000000E+00   0.00000000000000E+00  -1.46142069708784E-18
     -4.87771054072516E-18  -6.33913123781300E-18  -7.96221623578382E-16   0.00000000000000E+00   1.06955141615914E-10
      0.00000000000000E+00   0.00000000000000E+00  -2.67396808102136E-12   0.00000000000000E+00  -2.67396808102136E-12
      3.94395423335687E-16   5.00000000000000E-02   4.99999998930186E-02   0.00000000000000E+00   0.00000000000000E+00
      2.67469497228054E-12   0.00000000000000E+00   2.67469497228054E-12   4.20135602595050E-16   1.41666666666667E-01
      1.41666666666667E-01   0.00000000000000E+00   0.00000000000000E+00   0.00000000000000E+00   0.00000000000000E+00
      0.00000000000000E+00  -1.83094023523577E-17
      2.00000000000000E-01
      0.00000000000000E+00   0.00000000000000E+00   0.00000000000000E+00   0.00000000000000E+00  -1.58995786149857E-18
     -4.89734160557965E-18  -6.48729946707822E-18  -7.96362895543221E-16   0.00000000000000E+00   2.38077839657224E-10
      0.00000000000000E+00   0.00000000000000E+00  -5.95197834455090E-12   0.00000000000000E+00  -5.95197834455090E-12
      3.90209544498204E-16   5.00000000000000E-02   4.99999997618960E-02   0.00000000000000E+00   0.00000000000000E+00
      5.95261792190972E-12   0.00000000000000E+00   5.95261792190972E-12   4.16004821949672E-16   1.70000000000000E-01
      1.70000000000000E-01   0.00000000000000E+00   0.00000000000000E+00   0.00000000000000E+00   0.00000000000000E+00
      0.00000000000000E+00  -9.85147090465540E-18
      2.33333333333333E-01
      0.00000000000000E+00   0.00000000000000E+00   0.00000000000000E+00   0.00000000000000E+00   1.07917532473972E-15
     -4.93981678418914E-18   1.07423550795553E-15  -7.96504394416176E-16   0.00000000000000E+00   5.35735397246702E-10
      0.00000000000000E+00   0.00000000000000E+00  -1.33934050117252E-11   0.00000000000000E+00  -1.33934050117252E-11
      3.86011507976339E-16   5.00000000000000E-02   4.99999994642386E-02   0.00000000000000E+00   0.00000000000000E+00
      1.33940109331264E-11   0.00000000000000E+00   1.33940109331264E-11   4.11860771394391E-16   1.98333333333333E-01
      1.98333333333333E-01   0.00000000000000E+00   0.00000000000000E+00   0.00000000000000E+00   0.00000000000000E+00
      0.00000000000000E+00  -1.36788495455448E-18
      2.66666666666667E-01
      0.00000000000000E+00   0.00000000000000E+00   0.00000000000000E+00   0.00000000000000E+00   1.36871180586933E-15
     -4.99539323330823E-18   1.36371641263602E-15  -7.96646437501209E-16   0.00000000000000E+00   1.21315714263337E-09
      0.00000000000000E+00   0.00000000000000E+00  -3.03289119157245E-11   0.00000000000000E+00  -3.03289119157245E-11
      3.81801696727578E-16   5.00000000000000E-02   4.99999987868171E-02   0.00000000000000E+00   0.00000000000000E+00
      3.03295888171706E-11   0.00000000000000E+00   3.03295888171706E-11   4.07703776828467E-16   2.26666666666667E-01
      2.26666666666667E-01   0.00000000000000E+00   0.00000000000000E+00   0.00000000000000E+00   0.00000000000000E+00
      0.00000000000000E+00   7.14096394516775E-18
      3.00000000000000E-01
      0.00000000000000E+00   0.00000000000000E+00   0.00000000000000E+00   0.00000000000000E+00   1.69401818649699E-15
     -5.05966568377049E-18   1.68895852081322E-15  -7.96789438430614E-16   0.00000000000000E+00   2.75691947479092E-09
      0.00000000000000E+00   0.00000000000000E+00  -6.89229483805398E-11   0.00000000000000E+00  -6.89229483805398E-11
      3.77580506223996E-16   5.00000000000000E-02   4.99999972430549E-02   0.00000000000000E+00   0.00000000000000E+00
      6.89236135622415E-11   0.00000000000000E+00   6.89236135622415E-11   4.03534207576354E-16   2.55000000000000E-01
      2.55000000000000E-01   0.00000000000000E+00   0.00000000000000E+00   0.00000000000000E+00   0.00000000000000E+00
      0.00000000000000E+00   1.56747246302651E-17
      3.33333333333333E-01
      0.00000000000000E+00   0.00000000000000E+00   0.00000000000000E+00   0.00000000000000E+00   2.48739967875756E-15
     -5.13045524028890E-18   2.48226922351727E-15  -7.96933945758192E-16   0.00000000000000E+00   6.27623170286263E-09
      0.00000000000000E+00   0.00000000000000E+00  -1.56905803042485E-10   0.00000000000000E+00  -1.56905803042485E-10
      3.73348362785542E-16   5.00000000000000E-02   4.99999937237428E-02   0.00000000000000E+00   0.00000000000000E+00
      1.56906396960257E-10   0.00000000000000E+00   1.56906396960257E-10   3.99352459514980E-16   2.83333333333333E-01
      2.83333333333333E-01   0.00000000000000E+00   0.00000000000000E+00   0.00000000000000E+00   0.00000000000000E+00
      0.00000000000000E+00   2.42331234576692E-17
      3.66666666666667E-01
      0.00000000000000E+00   0.00000000000000E+00   0.00000000000000E+00   0.00000000000000E+00   3.52267105383761E-15
     -5.20655321175925E-18   3.51746450062585E-15  -7.97080700925602E-16   0.00000000000000E+00   1.42967988338553E-08
      0.00000000000000E+00   0.00000000000000E+00  -3.57419959056236E-10   0.00000000000000E+00  -3.57419959056236E-10
      3.69105755689663E-16   5.00000000000000E-02   4.99999857031758E-02   0.00000000000000E+00   0.00000000000000E+00
      3.57420631887089E-10   0.00000000000000E+00   3.57420631887089E-10   3.95158948623075E-16   3.11666666666667E-01
      3.11666666666667E-01   0.00000000000000E+00   0.00000000000000E+00   0.00000000000000E+00   0.00000000000000E+00
      0.00000000000000E+00   3.28159966128660E-17
      4.00000000000000E-01
      0.00000000000000E+00   0.00000000000000E+00   0.00000000000000E+00   0.00000000000000E+00   4.67483086209819E-15
     -5.28731742894502E-18   4.66954354466924E-15  -7.97230729507532E-16   0.00000000000000E+00   3.25567383411576E-08
      0.00000000000000E+00   0.00000000000000E+00  -8.13918491467951E-10   0.00000000000000E+00  -8.13918491467951E-10
      3.64853284598619E-16   5.00000000000000E-02   4.99999674432364E-02   0.00000000000000E+00   0.00000000000000E+00
      8.13919100817903E-10   0.00000000000000E+00   8.13919100817903E-10   3.90954117378912E-16   3.40000000000000E-01
      3.40000000000000E-01   0.00000000000000E+00   0.00000000000000E+00   0.00000000000000E+00   0.00000000000000E+00
      0.00000000000000E+00   4.14233275300007E-17
      4.33333333333333E-01
      0.00000000000000E+00   0.00000000000000E+00   0.00000000000000E+00   0.00000000000000E+00   5.75671549488522E-15
     -5.37234838391793E-18   5.75134314650130E-15  -7.97385493440442E-16   0.00000000000000E+00   7.40458192044316E-08
      0.00000000000000E+00   0.00000000000000E+00  -1.85114545496610E-09   0.00000000000000E+00  -1.85114545496610E-09
      3.60591726428391E-16   5.00000000000000E-02   4.99999259541557E-02   0.00000000000000E+00   0.00000000000000E+00
      1.85114605705037E-09   0.00000000000000E+00   1.85114605705037E-09   3.86738455941216E-16   3.68333333333333E-01
      3.68333333333333E-01   0.00000000000000E+00   0.00000000000000E+00   0.00000000000000E+00   0.00000000000000E+00
      0.00000000000000E+00   5.00553110708365E-17
      4.66666666666667E-01
      0.00000000000000E+00   0.00000000000000E+00   0.00000000000000E+00   0.00000000000000E+00   6.41569228424296E-15
     -5.46129916732931E-18   6.41023098507563E-15  -7.97547161607474E-16   0.00000000000000E+00   1.68030513683004E-07
      0.00000000000000E+00   0.00000000000000E+00  -4.20076284264453E-09   0.00000000000000E+00  -4.20076284264453E-09
      3.56322131757670E-16   5.00000000000000E-02   4.99998319694614E-02   0.00000000000000E+00   0.00000000000000E+00
      4.20076345260669E-09   0.00000000000000E+00   4.20076345260669E-09   3.82512540684870E-16   3.96666666666667E-01
      3.96666666666667E-01   0.00000000000000E+00   0.00000000000000E+00   0.00000000000000E+00   0.00000000000000E+00
      0.00000000000000E+00   5.87124891649340E-17
      5.00000000000000E-01
      0.00000000000000E+00   0.00000000000000E+00   0.00000000000000E+00   0.00000000000000E+00   6.18433410623488E-15
     -5.55376568297174E-18   6.17878034055191E-15  -7.97719121642683E-16   0.00000000000000E+00   3.80057007246285E-07
      0.00000000000000E+00   0.00000000000000E+00  -9.50142518662200E-09   0.00000000000000E+00  -9.50142518662200E-09
      3.52045973465700E-16   5.00000000000000E-02   4.99996199429679E-02   0.00000000000000E+00   0.00000000000000E+00
      9.50142582915335E-09   0.00000000000000E+00   9.50142582915335E-09   3.78277095597867E-16   4.25000000000000E-01
      4.25000000000000E-01   0.00000000000000E+00   0.00000000000000E+00   0.00000000000000E+00   0.00000000000000E+00
      0.00000000000000E+00   6.73960525791166E-17
      5.33333333333333E-01
      0.00000000000000E+00   0.00000000000000E+00   0.00000000000000E+00   0.00000000000000E+00   4.55147376420927E-15
     -5.64900732142654E-18   4.54582475688784E-15  -7.97907005456492E-16   0.00000000000000E+00   8.56262949001190E-07
      0.00000000000000E+00   0.00000000000000E+00  -2.14065737524803E-08   0.00000000000000E+00  -2.14065737524803E-08
      3.47765396844857E-16   5.00000000000000E-02   4.99991437370263E-02   0.00000000000000E+00   0.00000000000000E+00
      2.14065743676410E-08   0.00000000000000E+00   2.14065743676410E-08   3.74033089916037E-16   4.53333333333333E-01
      4.53333333333333E-01   0.00000000000000E+00   0.00000000000000E+00   0.00000000000000E+00   0.00000000000000E+00
      0.00000000000000E+00   7.61085186955968E-17
      5.66666666666667E-01
      0.00000000000000E+00   0.00000000000000E+00   0.00000000000000E+00   0.00000000000000E+00   5.46840508364703E-16
     -5.74575779764136E-18   5.41094750567061E-16  -7.98120844206148E-16   0.00000000000000E+00   1.92129648707858E-06
      0.00000000000000E+00   0.00000000000000E+00  -4.80324122035152E-08   0.00000000000000E+00  -4.80324122035152E-08
      3.43483675843311E-16   5.00000000000000E-02   4.99980787034884E-02   0.00000000000000E+00   0.00000000000000E+00
      4.80324127660689E-08   0.00000000000000E+00   4.80324127660689E-08   3.69781905687256E-16   4.81666666666667E-01
      4.81666666666667E-01   0.00000000000000E+00   0.00000000000000E+00   0.00000000000000E+00   0.00000000000000E+00
      0.00000000000000E+00   8.48552626755814E-17
      6.00000000000000E-01
      0.00000000000000E+00   0.00000000000000E+00   0.00000000000000E+00   0.00000000000000E+00  -8.21068838781992E-15
     -5.84404144266297E-18  -8.21653242926258E-15  -7.98379617590548E-16   0.00000000000000E+00   4.28733955406834E-06
      0.00000000000000E+00   0.00000000000000E+00  -1.07183488795934E-07   0.00000000000000E+00  -1.07183488795934E-07
      3.39206071668071E-16   5.00000000000000E-02   4.99957126604215E-02   0.00000000000000E+00   0.00000000000000E+00
      1.07183489469336E-07   0.00000000000000E+00   1.07183489469336E-07   3.65525649251867E-16   5.10000000000000E-01
      5.10000000000000E-01   0.00000000000000E+00   0.00000000000000E+00   0.00000000000000E+00   0.00000000000000E+00
      0.00000000000000E+00   9.36478966706143E-17
      6.33333333333333E-01
      0.00000000000000E+00   0.00000000000000E+00   0.00000000000000E+00   0.00000000000000E+00  -2.93425792660116E-14
     -5.94522467609691E-18  -2.93485244906877E-14  -7.98720872264391E-16   0.00000000000000E+00   9.48167073376012E-06
      0.00000000000000E+00   0.00000000000000E+00  -2.37041768343385E-07   0.00000000000000E+00  -2.37041768343385E-07
      3.34941459270997E-16   5.00000000000000E-02   4.99905183292419E-02   0.00000000000000E+00   0.00000000000000E+00
      2.37041768997403E-07   0.00000000000000E+00   2.37041768997403E-07   3.61267784866336E-16   5.38333333333333E-01
      5.38333333333333E-01   0.00000000000000E+00   0.00000000000000E+00   0.00000000000000E+00   0.00000000000000E+00
      0.00000000000000E+00   1.02511628127056E-16
      6.66666666666667E-01
      0.00000000000000E+00   0.00000000000000E+00   0.00000000000000E+00   0.00000000000000E+00  -8.68520472837555E-14
     -6.04994441537658E-18  -8.68580972281709E-14  -7.99221010544979E-16   0.00000000000000E+00   2.06881065956788E-05
      0.00000000000000E+00   0.00000000000000E+00  -5.17202664924819E-07   0.00000000000000E+00  -5.17202664924819E-07
      3.30705362455240E-16   5.00000000000000E-02   4.99793118933801E-02   0.00000000000000E+00   0.00000000000000E+00
      5.17202665529126E-07   0.00000000000000E+00   5.17202665529126E-07   3.57014529351903E-16   5.66666666666667E-01
      5.66666666666667E-01   0.00000000000000E+00   0.00000000000000E+00   0.00000000000000E+00   0.00000000000000E+00
      0.00000000000000E+00   1.11501118737839E-16
      7.00000000000000E-01
      0.00000000000000E+00   0.00000000000000E+00   0.00000000000000E+00   0.00000000000000E+00  -2.58342938932935E-13
     -6.15815204446095E-18  -2.58349097084979E-13  -8.00035463306974E-16   0.00000000000000E+00   4.44510435200969E-05
      0.00000000000000E+00   0.00000000000000E+00  -1.11127608807730E-06   0.00000000000000E+00  -1.11127608807730E-06
      3.26525284835033E-16   5.00000000000000E-02   4.99555489564558E-02   0.00000000000000E+00   0.00000000000000E+00
      1.11127608857415E-06   0.00000000000000E+00   1.11127608857415E-06   3.52777759922363E-16   5.95000000000000E-01
      5.95000000000000E-01   0.00000000000000E+00   0.00000000000000E+00   0.00000000000000E+00   0.00000000000000E+00
      0.00000000000000E+00   1.20732418549577E-16
      7.33333333333333E-01
      0.00000000000000E+00   0.00000000000000E+00   0.00000000000000E+00   0.00000000000000E+00  -7.51519196064337E-13
     -6.27095874496842E-18  -7.51525467023082E-13  -8.01465651365625E-16   0.00000000000000E+00   9.30599433896569E-05
      0.00000000000000E+00   0.00000000000000E+00  -2.32649858488657E-06   0.00000000000000E+00  -2.32649858488657E-06
      3.22448158770381E-16   5.00000000000000E-02   4.99069400565863E-02   0.00000000000000E+00   0.00000000000000E+00
      2.32649858525138E-06   0.00000000000000E+00   2.32649858525138E-06   3.48580513810251E-16   6.23333333333333E-01
      6.23333333333333E-01   0.00000000000000E+00   0.00000000000000E+00   0.00000000000000E+00   0.00000000000000E+00
      0.00000000000000E+00   1.30436978784995E-16
      7.66666666666667E-01
      0.00000000000000E+00   0.00000000000000E+00   0.00000000000000E+00   0.00000000000000E+00  -1.46974676584796E-12
     -6.39451832850109E-18  -1.46975316036629E-12  -8.04016470945862E-16   0.00000000000000E+00   1.83499176210661E-04
      0.00000000000000E+00   0.00000000000000E+00  -4.58747940785548E-06   0.00000000000000E+00  -4.58747940785548E-06
      3.18542885996810E-16   5.00000000000000E-02   4.98165008237652E-02   0.00000000000000E+00   0.00000000000000E+00
      4.58747940282142E-06   0.00000000000000E+00   4.58747940282142E-06   3.44464545344866E-16   6.51666666666667E-01
      6.51666666666667E-01   0.00000000000000E+00   0.00000000000000E+00   0.00000000000000E+00   0.00000000000000E+00
      0.00000000000000E+00   1.41009039604190E-16
      8.00000000000000E-01
      0.00000000000000E+00   0.00000000000000E+00   0.00000000000000E+00   0.00000000000000E+00   1.21286170026957E-12
     -6.52968999197166E-18   1.21285517057958E-12  -8.08345837499078E-16   0.00000000000000E+00   3.28098156259914E-04
      0.00000000000000E+00   0.00000000000000E+00  -8.20245392786171E-06   0.00000000000000E+00  -8.20245392786171E-06
      3.14884951661655E-16   5.00000000000000E-02   4.96719018437158E-02   0.00000000000000E+00   0.00000000000000E+00
      8.20245388431610E-06   0.00000000000000E+00   8.20245388431610E-06   3.40493584404380E-16   6.80000000000000E-01
      6.80000000000000E-01   0.00000000000000E+00   0.00000000000000E+00   0.00000000000000E+00   0.00000000000000E+00
      0.00000000000000E+00   1.52967301433044E-16
      8.33333333333333E-01
      0.00000000000000E+00   0.00000000000000E+00   0.00000000000000E+00   0.00000000000000E+00   1.40671022342744E-11
     -6.66500408094686E-18   1.40670955692703E-11  -8.15042344875053E-16   0.00000000000000E+00   5.23097286920913E-04
      0.00000000000000E+00   0.00000000000000E+00  -1.30774322744086E-05   0.00000000000000E+00  -1.30774322744086E-05
      3.11525314529281E-16   5.00000000000000E-02   4.94769027130545E-02   0.00000000000000E+00   0.00000000000000E+00
      1.30774321129886E-05   0.00000000000000E+00   1.30774321129886E-05   3.36739672690571E-16   7.08333333333333E-01
      7.08333333333333E-01   0.00000000000000E+00   0.00000000000000E+00   0.00000000000000E+00   0.00000000000000E+00
      0.00000000000000E+00   1.66777357655202E-16
      8.66666666666667E-01
      0.00000000000000E+00   0.00000000000000E+00   0.00000000000000E+00   0.00000000000000E+00   2.91349284298774E-11
     -6.78716710390285E-18   2.91349216427103E-11  -8.24348568888413E-16   0.00000000000000E+00   7.48603352195511E-04
      0.00000000000000E+00   0.00000000000000E+00  -1.87150838259793E-05   0.00000000000000E+00  -1.87150838259793E-05
      3.08467737482913E-16   5.00000000000000E-02   4.92513966477795E-02   0.00000000000000E+00   0.00000000000000E+00
      1.87150837558981E-05   0.00000000000000E+00   1.87150837558981E-05   3.33252351508941E-16   7.36666666666667E-01
      7.36666666666667E-01   0.00000000000000E+00   0.00000000000000E+00   0.00000000000000E+00   0.00000000000000E+00
      0.00000000000000E+00   1.82628479896560E-16
      9.00000000000000E-01
      0.00000000000000E+00   0.00000000000000E+00   0.00000000000000E+00   0.00000000000000E+00   3.06954611789851E-11
     -6.88900875450655E-18   3.06954542899764E-11  -8.36108915908265E-16   0.00000000000000E+00   9.80489541698920E-04
      0.00000000000000E+00   0.00000000000000E+00  -2.45122385447328E-05   0.00000000000000E+00  -2.45122385447328E-05
      3.05676489512542E-16   5.00000000000000E-02   4.90195104582758E-02   0.00000000000000E+00   0.00000000000000E+00
      2.45122385312156E-05   0.00000000000000E+00   2.45122385312156E-05   3.30040328414388E-16   7.65000000000000E-01
      7.65000000000000E-01   0.00000000000000E+00   0.00000000000000E+00   0.00000000000000E+00   0.00000000000000E+00
      0.00000000000000E+00   2.00392097981333E-16
      9.33333333333333E-01
      0.00000000000000E+00   0.00000000000000E+00   0.00000000000000E+00   0.00000000000000E+00   2.09649873034456E-11
     -6.96981032290497E-18   2.09649803336353E-11  -8.49945903182165E-16   0.00000000000000E+00   1.20096031132484E-03
      0.00000000000000E+00   0.00000000000000E+00  -3.00240077865752E-05   0.00000000000000E+00  -3.00240077865752E-05
      3.03100832566316E-16   5.00000000000000E-02   4.87990396886495E-02   0.00000000000000E+00   0.00000000000000E+00
      3.00240077822495E-05   0.00000000000000E+00   3.00240077822495E-05   3.27080129427721E-16   7.93333333333333E-01
      7.93333333333333E-01   0.00000000000000E+00   0.00000000000000E+00   0.00000000000000E+00   0.00000000000000E+00
      0.00000000000000E+00   2.19764941188127E-16
      9.66666666666667E-01
      0.00000000000000E+00   0.00000000000000E+00   0.00000000000000E+00   0.00000000000000E+00   1.08733227115268E-11
     -7.03248112126526E-18   1.08733156790457E-11  -8.65443611089027E-16   0.00000000000000E+00   1.40101443151284E-03
      0.00000000000000E+00   0.00000000000000E+00  -3.50253607931899E-05   0.00000000000000E+00  -3.50253607931899E-05
      3.00693012809059E-16   5.00000000000000E-02   4.85989855684612E-02   0.00000000000000E+00   0.00000000000000E+00
      3.50253607854174E-05   0.00000000000000E+00   3.50253607854174E-05   3.24334196955988E-16   8.21666666666667E-01
      8.21666666666667E-01   0.00000000000000E+00   0.00000000000000E+00   0.00000000000000E+00   0.00000000000000E+00
      0.00000000000000E+00   2.40416401323983E-16
      1.00000000000000E+00
      0.00000000000000E+00   0.00000000000000E+00   0.00000000000000E+00   0.00000000000000E+00   4.74813980754845E-12
     -7.08077543195149E-18   4.74813272677302E-12  -8.82241625397835E-16   0.00000000000000E+00   1.57784625400945E-03
      0.00000000000000E+00   0.00000000000000E+00  -3.94461563545277E-05   0.00000000000000E+00  -3.94461563545277E-05
      2.98414877874939E-16   5.00000000000000E-02   4.84221537459644E-02   0.00000000000000E+00   0.00000000000000E+00
      3.94461563474813E-05   0.00000000000000E+00   3.94461563474813E-05   3.21764238659492E-16   8.50000000000000E-01
      8.50000000000000E-01   0.00000000000000E+00   0.00000000000000E+00   0.00000000000000E+00   0.00000000000000E+00
      0.00000000000000E+00   2.62062508863403E-16
}
