DF-ISE text

Info {
  version   = 1.0
  type      = xyplot
  datasets  = [
    "time"
    "Substrate OuterVoltage" "Substrate InnerVoltage" "Substrate QuasiFermiPotential" "Substrate DisplacementCurrent" "Substrate eCurrent"
    "Substrate hCurrent" "Substrate TotalCurrent" "Substrate Charge" "source OuterVoltage" "source InnerVoltage"
    "source QuasiFermiPotential" "source DisplacementCurrent" "source eCurrent" "source hCurrent" "source TotalCurrent"
    "source Charge" "drain OuterVoltage" "drain InnerVoltage" "drain QuasiFermiPotential" "drain DisplacementCurrent"
    "drain eCurrent" "drain hCurrent" "drain TotalCurrent" "drain Charge" "gate OuterVoltage"
    "gate InnerVoltage" "gate QuasiFermiPotential" "gate DisplacementCurrent" "gate eCurrent" "gate hCurrent"
    "gate TotalCurrent" "gate Charge" ]
  functions = [
    Time
    OuterVoltage InnerVoltage QuasiFermiPotential DisplacementCurrent eCurrent
    hCurrent TotalCurrent Charge OuterVoltage InnerVoltage
    QuasiFermiPotential DisplacementCurrent eCurrent hCurrent TotalCurrent
    Charge OuterVoltage InnerVoltage QuasiFermiPotential DisplacementCurrent
    eCurrent hCurrent TotalCurrent Charge OuterVoltage
    InnerVoltage QuasiFermiPotential DisplacementCurrent eCurrent hCurrent
    TotalCurrent Charge ]
}

Data {
      0.00000000000000E+00
      0.00000000000000E+00   0.00000000000000E+00   0.00000000000000E+00   0.00000000000000E+00   7.79308085699851E-21
      1.36300263807538E-31   7.79308085713481E-21  -7.94682406488509E-16   0.00000000000000E+00  -1.49266195727301E-17
      0.00000000000000E+00   0.00000000000000E+00   7.51283727281652E-19   0.00000000000000E+00   7.51283727281652E-19
      4.17265255884489E-16   0.00000000000000E+00  -2.05775792965514E-17   0.00000000000000E+00   0.00000000000000E+00
      4.71467308903064E-18   0.00000000000000E+00   4.71467308903064E-18   4.29969288471990E-16   0.00000000000000E+00
      0.00000000000000E+00   0.00000000000000E+00   0.00000000000000E+00   0.00000000000000E+00   0.00000000000000E+00
      0.00000000000000E+00  -5.25521378679704E-17
      0.00000000000000E+00
      0.00000000000000E+00   0.00000000000000E+00   0.00000000000000E+00   0.00000000000000E+00   2.28491170770330E-18
     -6.02791323335050E-30   2.28491170769727E-18  -7.94682371442983E-16   0.00000000000000E+00  -3.55259946306052E-23
      0.00000000000000E+00   0.00000000000000E+00   4.80199028118857E-18   0.00000000000000E+00   4.80199028118857E-18
      4.17265240490812E-16   0.00000000000000E+00   5.74590776932800E-23   0.00000000000000E+00   0.00000000000000E+00
     -5.52843424254215E-17   0.00000000000000E+00  -5.52843424254215E-17   4.29969273082599E-16   0.00000000000000E+00
      0.00000000000000E+00   0.00000000000000E+00   0.00000000000000E+00   0.00000000000000E+00   0.00000000000000E+00
      0.00000000000000E+00  -5.25521421304255E-17
      0.00000000000000E+00
      0.00000000000000E+00   0.00000000000000E+00   0.00000000000000E+00   0.00000000000000E+00   2.12045055400896E-19
     -5.99002070770878E-31   2.12045055400297E-19  -7.94682371442805E-16   0.00000000000000E+00  -2.77543513039789E-27
      0.00000000000000E+00   0.00000000000000E+00   8.96895564361084E-18   0.00000000000000E+00   8.96895564361084E-18
      4.17265240490735E-16   0.00000000000000E+00  -2.31430992777692E-27   0.00000000000000E+00   0.00000000000000E+00
      3.20214541011758E-17   0.00000000000000E+00   3.20214541011758E-17   4.29969273082521E-16   0.00000000000000E+00
      0.00000000000000E+00   0.00000000000000E+00   0.00000000000000E+00   0.00000000000000E+00   0.00000000000000E+00
      0.00000000000000E+00  -5.25521421304470E-17
      1.00000000000000E-02
      0.00000000000000E+00   0.00000000000000E+00   0.00000000000000E+00   0.00000000000000E+00   2.60675446231841E-18
     -8.39818909415671E-20   2.52277257137684E-18  -7.94690564256452E-16   0.00000000000000E+00   5.30382762683067E-14
      0.00000000000000E+00   0.00000000000000E+00  -1.29078596572382E-15   0.00000000000000E+00  -1.29078596572382E-15
      4.17241586109991E-16   5.00000000000000E-04   4.99999999945734E-04   0.00000000000000E+00   0.00000000000000E+00
      1.34096346587007E-15   0.00000000000000E+00   1.34096346587007E-15   4.30073181022587E-16   0.00000000000000E+00
      0.00000000000000E+00   0.00000000000000E+00   0.00000000000000E+00   0.00000000000000E+00   0.00000000000000E+00
      0.00000000000000E+00  -5.26242028761256E-17
      2.23666666666667E-02
      0.00000000000000E+00   0.00000000000000E+00   0.00000000000000E+00   0.00000000000000E+00  -5.88480331093747E-20
     -1.87777081237629E-19  -2.46625114347003E-19  -7.94700692073550E-16   0.00000000000000E+00   1.17854557125926E-13
      0.00000000000000E+00   0.00000000000000E+00  -2.94036718272316E-15   0.00000000000000E+00  -2.94036718272316E-15
      4.17212332473873E-16   1.11833333333333E-03   1.11833333321282E-03   0.00000000000000E+00   0.00000000000000E+00
      3.00580988369398E-15   0.00000000000000E+00   3.00580988369398E-15   4.30201670943497E-16   0.00000000000000E+00
      0.00000000000000E+00   0.00000000000000E+00   0.00000000000000E+00   0.00000000000000E+00   0.00000000000000E+00
      0.00000000000000E+00  -5.27133113438225E-17
      3.76601111111111E-02
      0.00000000000000E+00   0.00000000000000E+00   0.00000000000000E+00   0.00000000000000E+00   2.63133159543863E-20
     -3.16084939022420E-19  -2.89771623068033E-19  -7.94713210757537E-16   0.00000000000000E+00   1.96852835295553E-13
      0.00000000000000E+00   0.00000000000000E+00  -4.93764681112386E-15   0.00000000000000E+00  -4.93764681112386E-15
      4.17176153872467E-16   1.88300555555556E-03   1.88300555535439E-03   0.00000000000000E+00   0.00000000000000E+00
      5.02370843893575E-15   0.00000000000000E+00   5.02370843893575E-15   4.30360555526269E-16   0.00000000000000E+00
      0.00000000000000E+00   0.00000000000000E+00   0.00000000000000E+00   0.00000000000000E+00   0.00000000000000E+00
      0.00000000000000E+00  -5.28234986411993E-17
      5.65730040740741E-02
      0.00000000000000E+00   0.00000000000000E+00   0.00000000000000E+00   0.00000000000000E+00  -1.77411358801177E-19
     -4.74762299121590E-19  -6.52173657922767E-19  -7.94728682963547E-16   0.00000000000000E+00   2.92825941261451E-13
      0.00000000000000E+00   0.00000000000000E+00  -7.30155543843014E-15   0.00000000000000E+00  -7.30155543843014E-15
      4.17131410555438E-16   2.82865020370370E-03   2.82865020340469E-03   0.00000000000000E+00   0.00000000000000E+00
      7.46445989579855E-15   0.00000000000000E+00   7.46445989579855E-15   4.30557020452059E-16   0.00000000000000E+00
      0.00000000000000E+00   0.00000000000000E+00   0.00000000000000E+00   0.00000000000000E+00   0.00000000000000E+00
      0.00000000000000E+00  -5.29597480439534E-17
      7.99619483716049E-02
      0.00000000000000E+00   0.00000000000000E+00   0.00000000000000E+00   0.00000000000000E+00  -4.83636745453728E-19
     -6.71158890349519E-19  -1.15479563580325E-18  -7.94747802840096E-16   0.00000000000000E+00   4.08971037217792E-13
      0.00000000000000E+00   0.00000000000000E+00  -1.01991008784856E-14   0.00000000000000E+00  -1.01991008784856E-14
      4.17076074259228E-16   3.99809741858025E-03   3.99809741816300E-03   0.00000000000000E+00   0.00000000000000E+00
      1.04376163812251E-14   0.00000000000000E+00   1.04376163812251E-14   4.30799947940445E-16   0.00000000000000E+00
      0.00000000000000E+00   0.00000000000000E+00   0.00000000000000E+00   0.00000000000000E+00   0.00000000000000E+00
      0.00000000000000E+00  -5.31282193595798E-17
      1.08886276152885E-01
      0.00000000000000E+00   0.00000000000000E+00   0.00000000000000E+00   0.00000000000000E+00  -3.68794627312714E-19
     -9.14600838251620E-19  -1.28339546556433E-18  -7.94771426280810E-16   0.00000000000000E+00   5.48874360140713E-13
      0.00000000000000E+00   0.00000000000000E+00  -1.37295432741536E-14   0.00000000000000E+00  -1.37295432741536E-14
      4.17007636032404E-16   5.44431380764424E-03   5.44431380708483E-03   0.00000000000000E+00   0.00000000000000E+00
      1.40335372371416E-14   0.00000000000000E+00   1.40335372371416E-14   4.31100316121060E-16   0.00000000000000E+00
      0.00000000000000E+00   0.00000000000000E+00   0.00000000000000E+00   0.00000000000000E+00   0.00000000000000E+00
      0.00000000000000E+00  -5.33365258726539E-17
      1.44656028175734E-01
      0.00000000000000E+00   0.00000000000000E+00   0.00000000000000E+00   0.00000000000000E+00  -2.57217761880325E-19
     -1.21713175845687E-18  -1.47434952033719E-18  -7.94800607888780E-16   0.00000000000000E+00   7.16490851016414E-13
      0.00000000000000E+00   0.00000000000000E+00  -1.78775947737692E-14   0.00000000000000E+00  -1.78775947737692E-14
      4.16922992131487E-16   7.23280140878671E-03   7.23280140805731E-03   0.00000000000000E+00   0.00000000000000E+00
      1.82319019979835E-14   0.00000000000000E+00   1.82319019979835E-14   4.31471691801328E-16   0.00000000000000E+00
      0.00000000000000E+00   0.00000000000000E+00   0.00000000000000E+00   0.00000000000000E+00   0.00000000000000E+00
      0.00000000000000E+00  -5.35940760440346E-17
      1.88891288177325E-01
      0.00000000000000E+00   0.00000000000000E+00   0.00000000000000E+00   0.00000000000000E+00  -5.32675479036690E-19
     -1.59472452461131E-18  -2.12740000364800E-18  -7.94836646016623E-16   0.00000000000000E+00   9.16062837433327E-13
      0.00000000000000E+00   0.00000000000000E+00  -2.28946602091982E-14   0.00000000000000E+00  -2.28946602091982E-14
      4.16818302740855E-16   9.44456440886623E-03   9.44456440793485E-03   0.00000000000000E+00   0.00000000000000E+00
      2.33010807213675E-14   0.00000000000000E+00   2.33010807213675E-14   4.31930838151359E-16   0.00000000000000E+00
      0.00000000000000E+00   0.00000000000000E+00   0.00000000000000E+00   0.00000000000000E+00   0.00000000000000E+00
      0.00000000000000E+00  -5.39124948755924E-17
      2.43595559712625E-01
      0.00000000000000E+00   0.00000000000000E+00   0.00000000000000E+00   0.00000000000000E+00  -9.67898124014672E-19
     -2.06940227714843E-18  -3.03730040116310E-18  -7.94881137457763E-16   0.00000000000000E+00   1.15203163454867E-12
      0.00000000000000E+00   0.00000000000000E+00  -2.88051047041452E-14   0.00000000000000E+00  -2.88051047041452E-14
      4.16688817002397E-16   1.21797779856312E-02   1.21797779844616E-02   0.00000000000000E+00   0.00000000000000E+00
      2.92329258081022E-14   0.00000000000000E+00   2.92329258081022E-14   4.32498463622427E-16   0.00000000000000E+00
      0.00000000000000E+00   0.00000000000000E+00   0.00000000000000E+00   0.00000000000000E+00   0.00000000000000E+00
      0.00000000000000E+00  -5.43061431670631E-17
      3.11246508844612E-01
      0.00000000000000E+00   0.00000000000000E+00   0.00000000000000E+00   0.00000000000000E+00  -5.61164124276047E-19
     -2.67319420262165E-18  -3.23435832689769E-18  -7.94936043576379E-16   0.00000000000000E+00   1.42893744119539E-12
      0.00000000000000E+00   0.00000000000000E+00  -3.57256367141539E-14   0.00000000000000E+00  -3.57256367141539E-14
      4.16528656261786E-16   1.55623254422306E-02   1.55623254407819E-02   0.00000000000000E+00   0.00000000000000E+00
      3.62065164305015E-14   0.00000000000000E+00   3.62065164305015E-14   4.33200144197518E-16   0.00000000000000E+00
      0.00000000000000E+00   0.00000000000000E+00   0.00000000000000E+00   0.00000000000000E+00   0.00000000000000E+00
      0.00000000000000E+00  -5.47927568829246E-17
      3.94908182604504E-01
      0.00000000000000E+00   0.00000000000000E+00   0.00000000000000E+00   0.00000000000000E+00  -8.69194789665461E-19
     -3.45597499678160E-18  -4.32516978644706E-18  -7.95003769854280E-16   0.00000000000000E+00   1.75149773152646E-12
      0.00000000000000E+00   0.00000000000000E+00  -4.37961867162284E-14   0.00000000000000E+00  -4.37961867162284E-14
      4.16330545471474E-16   1.97454091302252E-02   1.97454091284521E-02   0.00000000000000E+00   0.00000000000000E+00
      4.43546660236156E-14   0.00000000000000E+00   4.43546660236156E-14   4.34067458005855E-16   0.00000000000000E+00
      0.00000000000000E+00   0.00000000000000E+00   0.00000000000000E+00   0.00000000000000E+00   0.00000000000000E+00
      0.00000000000000E+00  -5.53942336230466E-17
      4.98369785820903E-01
      0.00000000000000E+00   0.00000000000000E+00   0.00000000000000E+00   0.00000000000000E+00  -9.87015564383201E-19
     -4.50193862233353E-18  -5.48895418671673E-18  -7.95087260970420E-16   0.00000000000000E+00   2.12493949877412E-12
      0.00000000000000E+00   0.00000000000000E+00  -5.31248975556324E-14   0.00000000000000E+00  -5.31248975556324E-14
      4.16085480240558E-16   2.49184892910452E-02   2.49184892888972E-02   0.00000000000000E+00   0.00000000000000E+00
      5.37074522083939E-14   0.00000000000000E+00   5.37074522083939E-14   4.35139379593196E-16   0.00000000000000E+00
      0.00000000000000E+00   0.00000000000000E+00   0.00000000000000E+00   0.00000000000000E+00   0.00000000000000E+00
      0.00000000000000E+00  -5.61375988633333E-17
      6.26317301798517E-01
      0.00000000000000E+00   0.00000000000000E+00   0.00000000000000E+00   0.00000000000000E+00  -1.35611996180110E-18
     -5.96648768873318E-18  -7.32260765053428E-18  -7.95190113567255E-16   0.00000000000000E+00   2.55601867319885E-12
      0.00000000000000E+00   0.00000000000000E+00  -6.39178512671227E-14   0.00000000000000E+00  -6.39178512671227E-14
      4.15782313972117E-16   3.13158650899259E-02   3.13158650873457E-02   0.00000000000000E+00   0.00000000000000E+00
      6.45603027818479E-14   0.00000000000000E+00   6.45603027818479E-14   4.36463990907510E-16   0.00000000000000E+00
      0.00000000000000E+00   0.00000000000000E+00   0.00000000000000E+00   0.00000000000000E+00   0.00000000000000E+00
      0.00000000000000E+00  -5.70561913123742E-17
      7.84545729890833E-01
      0.00000000000000E+00   0.00000000000000E+00   0.00000000000000E+00   0.00000000000000E+00  -1.79141112981256E-18
     -8.16500850737322E-18  -9.95641963718579E-18  -7.95316708737988E-16   0.00000000000000E+00   3.05526236249452E-12
      0.00000000000000E+00   0.00000000000000E+00  -7.64019058608710E-14   0.00000000000000E+00  -7.64019058608710E-14
      4.15407245739690E-16   3.92272864945416E-02   3.92272864914614E-02   0.00000000000000E+00   0.00000000000000E+00
      7.70113473889594E-14   0.00000000000000E+00   7.70113473889594E-14   4.38100577518528E-16   0.00000000000000E+00
      0.00000000000000E+00   0.00000000000000E+00   0.00000000000000E+00   0.00000000000000E+00   0.00000000000000E+00
      0.00000000000000E+00  -5.81911145202308E-17
      9.80221552631663E-01
      0.00000000000000E+00   0.00000000000000E+00   0.00000000000000E+00   0.00000000000000E+00  -1.61293988494270E-18
     -1.18058058935917E-17  -1.34187457785344E-17  -7.95472365921849E-16   0.00000000000000E+00   3.64196719018315E-12
      0.00000000000000E+00   0.00000000000000E+00  -9.10432116469968E-14   0.00000000000000E+00  -9.10432116469968E-14
      4.14943184864793E-16   4.90110776315832E-02   4.90110776279155E-02   0.00000000000000E+00   0.00000000000000E+00
      9.16631727873267E-14   0.00000000000000E+00   9.16631727873267E-14   4.40122191919067E-16   0.00000000000000E+00
      0.00000000000000E+00   0.00000000000000E+00   0.00000000000000E+00   0.00000000000000E+00   0.00000000000000E+00
      0.00000000000000E+00  -5.95930108620074E-17
      1.00000000000000E+00
      0.00000000000000E+00   0.00000000000000E+00   0.00000000000000E+00   0.00000000000000E+00  -1.66691363244379E-18
     -1.22513174540168E-17  -1.39182310864606E-17  -7.95488044884487E-16   0.00000000000000E+00   3.70026100823024E-12
      0.00000000000000E+00   0.00000000000000E+00  -9.25170564832925E-14   0.00000000000000E+00  -9.25170564832925E-14
      4.14896265076431E-16   5.00000000000000E-02   4.99999999962740E-02   0.00000000000000E+00   0.00000000000000E+00
      9.31367533693520E-14   0.00000000000000E+00   9.31367533693520E-14   4.40326391517537E-16   0.00000000000000E+00
      0.00000000000000E+00   0.00000000000000E+00   0.00000000000000E+00   0.00000000000000E+00   0.00000000000000E+00
      0.00000000000000E+00  -5.97346117094843E-17
}
