DF-ISE text

Info {
  version   = 1.0
  type      = xyplot
  datasets  = [
    "time"
    "Substrate OuterVoltage" "Substrate InnerVoltage" "Substrate QuasiFermiPotential" "Substrate DisplacementCurrent" "Substrate eCurrent"
    "Substrate hCurrent" "Substrate TotalCurrent" "Substrate Charge" "source OuterVoltage" "source InnerVoltage"
    "source QuasiFermiPotential" "source DisplacementCurrent" "source eCurrent" "source hCurrent" "source TotalCurrent"
    "source Charge" "drain OuterVoltage" "drain InnerVoltage" "drain QuasiFermiPotential" "drain DisplacementCurrent"
    "drain eCurrent" "drain hCurrent" "drain TotalCurrent" "drain Charge" "gate OuterVoltage"
    "gate InnerVoltage" "gate QuasiFermiPotential" "gate DisplacementCurrent" "gate eCurrent" "gate hCurrent"
    "gate TotalCurrent" "gate Charge" ]
  functions = [
    Time
    OuterVoltage InnerVoltage QuasiFermiPotential DisplacementCurrent eCurrent
    hCurrent TotalCurrent Charge OuterVoltage InnerVoltage
    QuasiFermiPotential DisplacementCurrent eCurrent hCurrent TotalCurrent
    Charge OuterVoltage InnerVoltage QuasiFermiPotential DisplacementCurrent
    eCurrent hCurrent TotalCurrent Charge OuterVoltage
    InnerVoltage QuasiFermiPotential DisplacementCurrent eCurrent hCurrent
    TotalCurrent Charge ]
}

Data {
      0.00000000000000E+00
      0.00000000000000E+00   0.00000000000000E+00   0.00000000000000E+00   0.00000000000000E+00   4.25408331148004E-21
      1.39949232290077E-31   4.25408331161999E-21  -7.94674020802772E-16   0.00000000000000E+00  -1.41667400603181E-17
      0.00000000000000E+00   0.00000000000000E+00   1.29691316827993E-17   0.00000000000000E+00   1.29691316827993E-17
      4.30148973643860E-16   0.00000000000000E+00  -1.39048848027949E-17   0.00000000000000E+00   0.00000000000000E+00
      2.71461641934019E-18   0.00000000000000E+00   2.71461641934019E-18   4.30016556912147E-16   0.00000000000000E+00
      0.00000000000000E+00   0.00000000000000E+00   0.00000000000000E+00   0.00000000000000E+00   0.00000000000000E+00
      0.00000000000000E+00  -6.54915097532347E-17
      0.00000000000000E+00
      0.00000000000000E+00   0.00000000000000E+00   0.00000000000000E+00   0.00000000000000E+00   4.27342155550339E-15
     -1.03582367412419E-26   4.27342155549303E-15  -7.94672505036895E-16   0.00000000000000E+00  -1.59060441252499E-22
      0.00000000000000E+00   0.00000000000000E+00  -1.49403728682997E-16   0.00000000000000E+00  -1.49403728682997E-16
      4.30148308184588E-16   0.00000000000000E+00   7.52848268506292E-24   0.00000000000000E+00   0.00000000000000E+00
     -1.68105092663180E-16   0.00000000000000E+00  -1.68105092663180E-16   4.30015891315813E-16   0.00000000000000E+00
      0.00000000000000E+00   0.00000000000000E+00   0.00000000000000E+00   0.00000000000000E+00   0.00000000000000E+00
      0.00000000000000E+00  -6.54916944635067E-17
      0.00000000000000E+00
      0.00000000000000E+00   0.00000000000000E+00   0.00000000000000E+00   0.00000000000000E+00  -1.04980731292619E-19
     -4.40874301708375E-31  -1.04980731293060E-19  -7.94672504756532E-16   0.00000000000000E+00  -5.89182358727411E-26
      0.00000000000000E+00   0.00000000000000E+00  -3.02638412511808E-17   0.00000000000000E+00  -3.02638412511808E-17
      4.30148308061495E-16   0.00000000000000E+00   7.78107739276504E-26   0.00000000000000E+00   0.00000000000000E+00
     -2.14696228301566E-17   0.00000000000000E+00  -2.14696228301566E-17   4.30015891192696E-16   0.00000000000000E+00
      0.00000000000000E+00   0.00000000000000E+00   0.00000000000000E+00   0.00000000000000E+00   0.00000000000000E+00
      0.00000000000000E+00  -6.54916944976594E-17
      1.00000000000000E-02
      0.00000000000000E+00   0.00000000000000E+00   0.00000000000000E+00   0.00000000000000E+00  -3.69019657769121E-17
     -1.43460061573515E-18  -3.83365663926473E-17  -7.94811443014503E-16   0.00000000000000E+00   2.05404165552974E-13
      0.00000000000000E+00   0.00000000000000E+00  -2.05493570123265E-14   0.00000000000000E+00  -2.05493570123265E-14
      4.29746487754356E-16   8.50000000000000E-03   8.49999999979101E-03   0.00000000000000E+00   0.00000000000000E+00
      2.08814506780263E-14   0.00000000000000E+00   2.08814506780263E-14   4.31781345853717E-16   0.00000000000000E+00
      0.00000000000000E+00   0.00000000000000E+00   0.00000000000000E+00   0.00000000000000E+00   0.00000000000000E+00
      0.00000000000000E+00  -6.67163905935689E-17
      2.30333333333333E-02
      0.00000000000000E+00   0.00000000000000E+00   0.00000000000000E+00   0.00000000000000E+00  -5.80421939132879E-14
     -3.42879796053482E-18  -5.80456227112484E-14  -7.94991309438432E-16   0.00000000000000E+00   4.29439299191376E-13
      0.00000000000000E+00   0.00000000000000E+00  -4.30085819596827E-14   0.00000000000000E+00  -4.30085819596827E-14
      4.29222462115475E-16   1.95783333333333E-02   1.95783333328985E-02   0.00000000000000E+00   0.00000000000000E+00
      3.78858198058365E-14   0.00000000000000E+00   3.78858198058365E-14   4.34079347015881E-16   0.00000000000000E+00
      0.00000000000000E+00   0.00000000000000E+00   0.00000000000000E+00   0.00000000000000E+00   0.00000000000000E+00
      0.00000000000000E+00  -6.83104996929231E-17
      4.06283333333333E-02
      0.00000000000000E+00   0.00000000000000E+00   0.00000000000000E+00   0.00000000000000E+00  -1.36698937842354E-13
     -6.81224334772861E-18  -1.36705750085702E-13  -7.95232008234441E-16   0.00000000000000E+00   6.82346902000413E-13
      0.00000000000000E+00   0.00000000000000E+00  -6.83310643334692E-14   0.00000000000000E+00  -6.83310643334692E-14
      4.28514478209263E-16   3.45340833333333E-02   3.45340833326448E-02   0.00000000000000E+00   0.00000000000000E+00
      5.07739133825863E-14   0.00000000000000E+00   5.07739133825863E-14   4.37176371334832E-16   0.00000000000000E+00
      0.00000000000000E+00   0.00000000000000E+00   0.00000000000000E+00   0.00000000000000E+00   0.00000000000000E+00
      0.00000000000000E+00  -7.04588413096521E-17
      6.43815833333333E-02
      0.00000000000000E+00   0.00000000000000E+00   0.00000000000000E+00   0.00000000000000E+00  -2.84609203684763E-13
     -1.46676213311526E-17  -2.84623871306094E-13  -7.95553229696208E-16   0.00000000000000E+00   9.82527640230440E-13
      0.00000000000000E+00   0.00000000000000E+00  -9.84626640927822E-14   0.00000000000000E+00  -9.84626640927822E-14
      4.27557755297303E-16   5.47243458333333E-02   5.47243458323443E-02   0.00000000000000E+00   0.00000000000000E+00
      3.82071541816023E-14   0.00000000000000E+00   3.82071541816023E-14   4.41347898094679E-16   0.00000000000000E+00
      0.00000000000000E+00   0.00000000000000E+00   0.00000000000000E+00   0.00000000000000E+00   0.00000000000000E+00
      0.00000000000000E+00  -7.33524236957746E-17
      9.64484708333334E-02
      0.00000000000000E+00   0.00000000000000E+00   0.00000000000000E+00   0.00000000000000E+00   4.55174916326004E-20
     -4.33205853314407E-17  -4.32750678398081E-17  -7.95980417746475E-16   0.00000000000000E+00   1.39154779567066E-12
      0.00000000000000E+00   0.00000000000000E+00  -1.39157880379440E-13   0.00000000000000E+00  -1.39157880379440E-13
      4.26264584439885E-16   8.19812002083334E-02   8.19812002069347E-02   0.00000000000000E+00   0.00000000000000E+00
      1.39881137408033E-13   0.00000000000000E+00   1.39881137408033E-13   4.46962629044932E-16   0.00000000000000E+00
      0.00000000000000E+00   0.00000000000000E+00   0.00000000000000E+00   0.00000000000000E+00   0.00000000000000E+00
      0.00000000000000E+00  -7.72467957383412E-17
      1.38990541583333E-01
      0.00000000000000E+00   0.00000000000000E+00   0.00000000000000E+00   0.00000000000000E+00   8.55782917985565E-18
     -2.10700340311364E-16  -2.02142511131508E-16  -7.96536408409106E-16   0.00000000000000E+00   2.06659039378655E-12
      0.00000000000000E+00   0.00000000000000E+00  -2.06745640581296E-13   0.00000000000000E+00  -2.06745640581296E-13
      4.24546428797461E-16   1.18141960345833E-01   1.18141960343757E-01   0.00000000000000E+00   0.00000000000000E+00
      2.07627224463262E-13   0.00000000000000E+00   2.07627224463262E-13   4.54382629544605E-16   0.00000000000000E+00
      0.00000000000000E+00   0.00000000000000E+00   0.00000000000000E+00   0.00000000000000E+00   0.00000000000000E+00
      0.00000000000000E+00  -8.23926499329614E-17
      1.95429688778333E-01
      0.00000000000000E+00   0.00000000000000E+00   0.00000000000000E+00   0.00000000000000E+00   4.81526990685096E-17
     -1.71100446259026E-15  -1.66285176352175E-15  -7.97256608117559E-16   0.00000000000000E+00   3.44740086217098E-12
      0.00000000000000E+00   0.00000000000000E+00  -3.44759720208358E-13   0.00000000000000E+00  -3.44759720208358E-13
      4.22263130835076E-16   1.66115235461583E-01   1.66115235458108E-01   0.00000000000000E+00   0.00000000000000E+00
      3.47520078134586E-13   0.00000000000000E+00   3.47520078134586E-13   4.64177626234215E-16   0.00000000000000E+00
      0.00000000000000E+00   0.00000000000000E+00   0.00000000000000E+00   0.00000000000000E+00   0.00000000000000E+00
      0.00000000000000E+00  -8.91841489517308E-17
      2.70305624057033E-01
      0.00000000000000E+00   0.00000000000000E+00   0.00000000000000E+00   0.00000000000000E+00   2.50967263319729E-16
     -1.96111648701935E-14  -1.93601976068738E-14  -7.98184534885709E-16   0.00000000000000E+00   6.90865705000674E-12
      0.00000000000000E+00   0.00000000000000E+00  -6.90861875936204E-13   0.00000000000000E+00  -6.90861875936204E-13
      4.19228503460979E-16   2.29759780448478E-01   2.29759780441348E-01   0.00000000000000E+00   0.00000000000000E+00
      7.13140482859229E-13   0.00000000000000E+00   7.13140482859229E-13   4.77089294900755E-16   0.00000000000000E+00
      0.00000000000000E+00   0.00000000000000E+00   0.00000000000000E+00   0.00000000000000E+00   0.00000000000000E+00
      0.00000000000000E+00  -9.81332634760269E-17
      3.69641031526775E-01
      0.00000000000000E+00   0.00000000000000E+00   0.00000000000000E+00   0.00000000000000E+00  -1.07934231784453E-16
     -3.91741592889119E-13  -3.91849527120904E-13  -7.99373253056169E-16   0.00000000000000E+00   1.77124418955504E-11
      0.00000000000000E+00   0.00000000000000E+00  -1.77119334144867E-12   0.00000000000000E+00  -1.77119334144867E-12
      4.15196085551548E-16   3.14194876797759E-01   3.14194876775963E-01   0.00000000000000E+00   0.00000000000000E+00
      2.17957625682239E-12   0.00000000000000E+00   2.17957625682239E-12   4.94074181537151E-16   0.00000000000000E+00
      0.00000000000000E+00   0.00000000000000E+00   0.00000000000000E+00   0.00000000000000E+00   0.00000000000000E+00
      0.00000000000000E+00  -1.09897014032528E-16
      5.01426005436633E-01
      0.00000000000000E+00   0.00000000000000E+00   0.00000000000000E+00   0.00000000000000E+00   9.07434548277396E-18
     -8.58362063009416E-12  -8.58361155574868E-12  -8.00886535792313E-16   0.00000000000000E+00   6.13711267737664E-11
      0.00000000000000E+00   0.00000000000000E+00  -6.13711965159187E-12   0.00000000000000E+00  -6.13711965159187E-12
      4.09841252451800E-16   4.26212104621138E-01   4.26212104471931E-01   0.00000000000000E+00   0.00000000000000E+00
      1.49208201977840E-11   0.00000000000000E+00   1.49208201977840E-11   5.16347794367927E-16   0.00000000000000E+00
      0.00000000000000E+00   0.00000000000000E+00   0.00000000000000E+00   0.00000000000000E+00   0.00000000000000E+00
      0.00000000000000E+00  -1.25302511027416E-16
      6.73185754765814E-01
      0.00000000000000E+00   0.00000000000000E+00   0.00000000000000E+00   0.00000000000000E+00  -2.17763735750541E-17
     -2.32910227282207E-10  -2.32910249058580E-10  -8.02764035526649E-16   0.00000000000000E+00   2.90869415576194E-10
      0.00000000000000E+00   0.00000000000000E+00  -2.90869232977478E-11   0.00000000000000E+00  -2.90869232977478E-11
      4.02860781984090E-16   5.72207891550942E-01   5.72207886153450E-01   0.00000000000000E+00   0.00000000000000E+00
      5.39749188947529E-10   0.00000000000000E+00   5.39749188947529E-10   5.44939299656230E-16   0.00000000000000E+00
      0.00000000000000E+00   0.00000000000000E+00   0.00000000000000E+00   0.00000000000000E+00   0.00000000000000E+00
      0.00000000000000E+00  -1.45036046113673E-16
      8.73185754765814E-01
      0.00000000000000E+00   0.00000000000000E+00   0.00000000000000E+00   0.00000000000000E+00  -3.67957077118150E-16
     -8.71891175191788E-10  -8.71891543148865E-10  -8.04825373450421E-16   0.00000000000000E+00   1.56025575764387E-09
      0.00000000000000E+00   0.00000000000000E+00  -1.56025597530401E-10   0.00000000000000E+00  -1.56025597530401E-10
      3.94732654395070E-16   7.42207891550942E-01   7.42207764252519E-01   0.00000000000000E+00   0.00000000000000E+00
      1.27298422976520E-08   0.00000000000000E+00   1.27298422976520E-08   5.77659873985242E-16   0.00000000000000E+00
      0.00000000000000E+00   0.00000000000000E+00   0.00000000000000E+00   0.00000000000000E+00   0.00000000000000E+00
      0.00000000000000E+00  -1.67567154929890E-16
      1.00000000000000E+00
      0.00000000000000E+00   0.00000000000000E+00   0.00000000000000E+00   0.00000000000000E+00   7.21871853266835E-15
     -1.80718782713434E-09  -1.80718060841581E-09  -8.06066951698421E-16   0.00000000000000E+00   4.15620784344854E-09
      0.00000000000000E+00   0.00000000000000E+00  -4.15620801007427E-10   0.00000000000000E+00  -4.15620801007427E-10
      3.89580330126467E-16   8.50000000000000E-01   8.49999734380810E-01   0.00000000000000E+00   0.00000000000000E+00
      2.65619156884053E-08   0.00000000000000E+00   2.65619156884053E-08   5.98104590344157E-16   0.00000000000000E+00
      0.00000000000000E+00   0.00000000000000E+00   0.00000000000000E+00   0.00000000000000E+00   0.00000000000000E+00
      0.00000000000000E+00  -1.81617968772200E-16
}
