DF-ISE text

Info {
  version   = 1.0
  type      = xyplot
  datasets  = [
    "time"
    "Substrate OuterVoltage" "Substrate InnerVoltage" "Substrate QuasiFermiPotential" "Substrate DisplacementCurrent" "Substrate eCurrent"
    "Substrate hCurrent" "Substrate TotalCurrent" "Substrate Charge" "source OuterVoltage" "source InnerVoltage"
    "source QuasiFermiPotential" "source DisplacementCurrent" "source eCurrent" "source hCurrent" "source TotalCurrent"
    "source Charge" "drain OuterVoltage" "drain InnerVoltage" "drain QuasiFermiPotential" "drain DisplacementCurrent"
    "drain eCurrent" "drain hCurrent" "drain TotalCurrent" "drain Charge" "gate OuterVoltage"
    "gate InnerVoltage" "gate QuasiFermiPotential" "gate DisplacementCurrent" "gate eCurrent" "gate hCurrent"
    "gate TotalCurrent" "gate Charge" ]
  functions = [
    Time
    OuterVoltage InnerVoltage QuasiFermiPotential DisplacementCurrent eCurrent
    hCurrent TotalCurrent Charge OuterVoltage InnerVoltage
    QuasiFermiPotential DisplacementCurrent eCurrent hCurrent TotalCurrent
    Charge OuterVoltage InnerVoltage QuasiFermiPotential DisplacementCurrent
    eCurrent hCurrent TotalCurrent Charge OuterVoltage
    InnerVoltage QuasiFermiPotential DisplacementCurrent eCurrent hCurrent
    TotalCurrent Charge ]
}

Data {
      0.00000000000000E+00
      0.00000000000000E+00   0.00000000000000E+00   0.00000000000000E+00   0.00000000000000E+00   4.49092727298100E-20
      1.02090540470071E-31   4.49092727299121E-20  -7.94705906471172E-16   0.00000000000000E+00   8.87707789278777E-19
      0.00000000000000E+00   0.00000000000000E+00  -1.36965000627804E-17   0.00000000000000E+00  -1.36965000627804E-17
      4.17502060843650E-16   0.00000000000000E+00   4.92298838003773E-18   0.00000000000000E+00   0.00000000000000E+00
      3.95199089282579E-19   0.00000000000000E+00   3.95199089282579E-19   4.30212239543495E-16   0.00000000000000E+00
      0.00000000000000E+00   0.00000000000000E+00   0.00000000000000E+00   0.00000000000000E+00   0.00000000000000E+00
      0.00000000000000E+00  -5.30083939159731E-17
      0.00000000000000E+00
      0.00000000000000E+00   0.00000000000000E+00   0.00000000000000E+00   0.00000000000000E+00   2.37044915012489E-18
     -6.17409752517371E-30   2.37044915011872E-18  -7.94705871336837E-16   0.00000000000000E+00  -3.04829443063949E-23
      0.00000000000000E+00   0.00000000000000E+00   1.68505742224163E-17   0.00000000000000E+00   1.68505742224163E-17
      4.17502045407189E-16   0.00000000000000E+00   6.71122529534876E-23   0.00000000000000E+00   0.00000000000000E+00
      2.26871587267656E-17   0.00000000000000E+00   2.26871587267656E-17   4.30212224111329E-16   0.00000000000000E+00
      0.00000000000000E+00   0.00000000000000E+00   0.00000000000000E+00   0.00000000000000E+00   0.00000000000000E+00
      0.00000000000000E+00  -5.30083981816792E-17
      0.00000000000000E+00
      0.00000000000000E+00   0.00000000000000E+00   0.00000000000000E+00   0.00000000000000E+00  -1.74023635804808E-20
     -7.03304724896592E-31  -1.74023635811841E-20  -7.94705871336661E-16   0.00000000000000E+00  -5.68832822689310E-27
      0.00000000000000E+00   0.00000000000000E+00   1.74657115921921E-17   0.00000000000000E+00   1.74657115921921E-17
      4.17502045407112E-16   0.00000000000000E+00  -8.51497118524737E-28   0.00000000000000E+00   0.00000000000000E+00
      3.96392482970842E-17   0.00000000000000E+00   3.96392482970842E-17   4.30212224111251E-16   0.00000000000000E+00
      0.00000000000000E+00   0.00000000000000E+00   0.00000000000000E+00   0.00000000000000E+00   0.00000000000000E+00
      0.00000000000000E+00  -5.30083981817008E-17
      1.00000000000000E-02
      0.00000000000000E+00   0.00000000000000E+00   0.00000000000000E+00   0.00000000000000E+00   2.52484301863817E-18
     -8.52764639283986E-20   2.43956655470977E-18  -7.94714063525052E-16   0.00000000000000E+00   5.36353434097830E-14
      0.00000000000000E+00   0.00000000000000E+00  -1.32762978118263E-15   0.00000000000000E+00  -1.32762978118263E-15
      4.17478362044890E-16   5.00000000000000E-04   4.99999999945033E-04   0.00000000000000E+00   0.00000000000000E+00
      1.38844073081280E-15   0.00000000000000E+00   1.38844073081280E-15   4.30316293740724E-16   0.00000000000000E+00
      0.00000000000000E+00   0.00000000000000E+00   0.00000000000000E+00   0.00000000000000E+00   0.00000000000000E+00
      0.00000000000000E+00  -5.30805922605595E-17
      2.23666666666667E-02
      0.00000000000000E+00   0.00000000000000E+00   0.00000000000000E+00   0.00000000000000E+00  -1.33100802545824E-19
     -1.90715707612809E-19  -3.23816510158634E-19  -7.94724190573744E-16   0.00000000000000E+00   1.19181208948366E-13
      0.00000000000000E+00   0.00000000000000E+00  -2.95820747295806E-15   0.00000000000000E+00  -2.95820747295806E-15
      4.17449072579126E-16   1.11833333333333E-03   1.11833333321126E-03   0.00000000000000E+00   0.00000000000000E+00
      3.00794244016651E-15   0.00000000000000E+00   3.00794244016651E-15   4.30444983489414E-16   0.00000000000000E+00
      0.00000000000000E+00   0.00000000000000E+00   0.00000000000000E+00   0.00000000000000E+00   0.00000000000000E+00
      0.00000000000000E+00  -5.31698654948011E-17
      3.76601111111111E-02
      0.00000000000000E+00   0.00000000000000E+00   0.00000000000000E+00   0.00000000000000E+00  -8.41211011752693E-21
     -3.21124702534769E-19  -3.29536812652296E-19  -7.94736708314757E-16   0.00000000000000E+00   1.99068904321933E-13
      0.00000000000000E+00   0.00000000000000E+00  -4.97751355966343E-15   0.00000000000000E+00  -4.97751355966343E-15
      4.17412849684977E-16   1.88300555555556E-03   1.88300555535180E-03   0.00000000000000E+00   0.00000000000000E+00
      5.13584886226424E-15   0.00000000000000E+00   5.13584886226424E-15   4.30604114995104E-16   0.00000000000000E+00
      0.00000000000000E+00   0.00000000000000E+00   0.00000000000000E+00   0.00000000000000E+00   0.00000000000000E+00
      0.00000000000000E+00  -5.32802563653283E-17
      5.65730040740741E-02
      0.00000000000000E+00   0.00000000000000E+00   0.00000000000000E+00   0.00000000000000E+00  -1.28439946411828E-19
     -4.82508451822069E-19  -6.10948398233898E-19  -7.94752179365622E-16   0.00000000000000E+00   2.96119563238160E-13
      0.00000000000000E+00   0.00000000000000E+00  -7.41136881067381E-15   0.00000000000000E+00  -7.41136881067381E-15
      4.17368051618147E-16   2.82865020370370E-03   2.82865020340086E-03   0.00000000000000E+00   0.00000000000000E+00
      7.57996939772493E-15   0.00000000000000E+00   7.57996939772493E-15   4.30800884977458E-16   0.00000000000000E+00
      0.00000000000000E+00   0.00000000000000E+00   0.00000000000000E+00   0.00000000000000E+00   0.00000000000000E+00
      0.00000000000000E+00  -5.34167572299816E-17
      7.99619483716049E-02
      0.00000000000000E+00   0.00000000000000E+00   0.00000000000000E+00   0.00000000000000E+00  -2.77889025083801E-20
     -6.82425136956720E-19  -7.10214039465100E-19  -7.94771297830228E-16   0.00000000000000E+00   4.13564894234604E-13
      0.00000000000000E+00   0.00000000000000E+00  -1.03573075277892E-14   0.00000000000000E+00  -1.03573075277892E-14
      4.17312647654127E-16   3.99809741858025E-03   3.99809741815769E-03   0.00000000000000E+00   0.00000000000000E+00
      1.05905912583530E-14   0.00000000000000E+00   1.05905912583530E-14   4.31044189247709E-16   0.00000000000000E+00
      0.00000000000000E+00   0.00000000000000E+00   0.00000000000000E+00   0.00000000000000E+00   0.00000000000000E+00
      0.00000000000000E+00  -5.35855390716103E-17
      1.08886276152885E-01
      0.00000000000000E+00   0.00000000000000E+00   0.00000000000000E+00   0.00000000000000E+00  -8.72888498514350E-20
     -9.30501354332620E-19  -1.01779020418406E-18  -7.94794919549679E-16   0.00000000000000E+00   5.55036628232705E-13
      0.00000000000000E+00   0.00000000000000E+00  -1.38879083783286E-14   0.00000000000000E+00  -1.38879083783286E-14
      4.17244125805767E-16   5.44431380764424E-03   5.44431380707775E-03   0.00000000000000E+00   0.00000000000000E+00
      1.41899795836809E-14   0.00000000000000E+00   1.41899795836809E-14   4.31345022650992E-16   0.00000000000000E+00
      0.00000000000000E+00   0.00000000000000E+00   0.00000000000000E+00   0.00000000000000E+00   0.00000000000000E+00
      0.00000000000000E+00  -5.37942289070799E-17
      1.44656028175734E-01
      0.00000000000000E+00   0.00000000000000E+00   0.00000000000000E+00   0.00000000000000E+00  -6.76701132580826E-19
     -1.23922545310807E-18  -1.91592658568890E-18  -7.94824099066102E-16   0.00000000000000E+00   7.24529111121461E-13
      0.00000000000000E+00   0.00000000000000E+00  -1.81177233728046E-14   0.00000000000000E+00  -1.81177233728046E-14
      4.17159378587416E-16   7.23280140878671E-03   7.23280140804814E-03   0.00000000000000E+00   0.00000000000000E+00
      1.84745746961163E-14   0.00000000000000E+00   1.84745746961163E-14   4.31716972520238E-16   0.00000000000000E+00
      0.00000000000000E+00   0.00000000000000E+00   0.00000000000000E+00   0.00000000000000E+00   0.00000000000000E+00
      0.00000000000000E+00  -5.40522520415519E-17
      1.88891288177325E-01
      0.00000000000000E+00   0.00000000000000E+00   0.00000000000000E+00   0.00000000000000E+00  -4.36479839118791E-19
     -1.62525056166106E-18  -2.06173040077985E-18  -7.94860134662418E-16   0.00000000000000E+00   9.26334433756810E-13
      0.00000000000000E+00   0.00000000000000E+00  -2.31664101218748E-14   0.00000000000000E+00  -2.31664101218748E-14
      4.17054561574467E-16   9.44456440886623E-03   9.44456440792322E-03   0.00000000000000E+00   0.00000000000000E+00
      2.35761667417191E-14   0.00000000000000E+00   2.35761667417191E-14   4.32176827178119E-16   0.00000000000000E+00
      0.00000000000000E+00   0.00000000000000E+00   0.00000000000000E+00   0.00000000000000E+00   0.00000000000000E+00
      0.00000000000000E+00  -5.43712540901693E-17
      2.43595559712625E-01
      0.00000000000000E+00   0.00000000000000E+00   0.00000000000000E+00   0.00000000000000E+00  -5.99892183831662E-19
     -2.11167785428405E-18  -2.71157003811571E-18  -7.94904623053930E-16   0.00000000000000E+00   1.16490713660949E-12
      0.00000000000000E+00   0.00000000000000E+00  -2.90930906108274E-14   0.00000000000000E+00  -2.90930906108274E-14
      4.16924918238754E-16   1.21797779856312E-02   1.21797779844471E-02   0.00000000000000E+00   0.00000000000000E+00
      2.96120342202574E-14   0.00000000000000E+00   2.96120342202574E-14   4.32745325815002E-16   0.00000000000000E+00
      0.00000000000000E+00   0.00000000000000E+00   0.00000000000000E+00   0.00000000000000E+00   0.00000000000000E+00
      0.00000000000000E+00  -5.47656209998244E-17
      3.11246508844612E-01
      0.00000000000000E+00   0.00000000000000E+00   0.00000000000000E+00   0.00000000000000E+00  -9.74876253629087E-19
     -2.73232233924911E-18  -3.70719859287820E-18  -7.94959525519430E-16   0.00000000000000E+00   1.44487169013409E-12
      0.00000000000000E+00   0.00000000000000E+00  -3.60960772361266E-14   0.00000000000000E+00  -3.60960772361266E-14
      4.16764562961102E-16   1.55623254422306E-02   1.55623254407642E-02   0.00000000000000E+00   0.00000000000000E+00
      3.66561339929280E-14   0.00000000000000E+00   3.66561339929280E-14   4.33448081843404E-16   0.00000000000000E+00
      0.00000000000000E+00   0.00000000000000E+00   0.00000000000000E+00   0.00000000000000E+00   0.00000000000000E+00
      0.00000000000000E+00  -5.52531192850759E-17
      3.94908182604504E-01
      0.00000000000000E+00   0.00000000000000E+00   0.00000000000000E+00   0.00000000000000E+00  -9.81975315743726E-19
     -3.54015827522830E-18  -4.52213359097203E-18  -7.95027247450258E-16   0.00000000000000E+00   1.77096377465305E-12
      0.00000000000000E+00   0.00000000000000E+00  -4.42817606987096E-14   0.00000000000000E+00  -4.42817606987096E-14
      4.16566212155778E-16   1.97454091302252E-02   1.97454091284307E-02   0.00000000000000E+00   0.00000000000000E+00
      4.48799554564502E-14   0.00000000000000E+00   4.48799554564502E-14   4.34316718743285E-16   0.00000000000000E+00
      0.00000000000000E+00   0.00000000000000E+00   0.00000000000000E+00   0.00000000000000E+00   0.00000000000000E+00
      0.00000000000000E+00  -5.58556834488050E-17
      4.98369785820903E-01
      0.00000000000000E+00   0.00000000000000E+00   0.00000000000000E+00   0.00000000000000E+00  -1.04774904646887E-18
     -4.62507874107269E-18  -5.67282778754156E-18  -7.95110733433213E-16   0.00000000000000E+00   2.14843607245650E-12
      0.00000000000000E+00   0.00000000000000E+00  -5.36845437019802E-14   0.00000000000000E+00  -5.36845437019802E-14
      4.16320850992807E-16   2.49184892910452E-02   2.49184892888716E-02   0.00000000000000E+00   0.00000000000000E+00
      5.43238779608846E-14   0.00000000000000E+00   5.43238779608846E-14   4.35390265636249E-16   0.00000000000000E+00
      0.00000000000000E+00   0.00000000000000E+00   0.00000000000000E+00   0.00000000000000E+00   0.00000000000000E+00
      0.00000000000000E+00  -5.66003831958427E-17
      6.26317301798517E-01
      0.00000000000000E+00   0.00000000000000E+00   0.00000000000000E+00   0.00000000000000E+00  -1.30472994717887E-18
     -6.15367328609395E-18  -7.45840323327282E-18  -7.95213580021200E-16   0.00000000000000E+00   2.58411812920578E-12
      0.00000000000000E+00   0.00000000000000E+00  -6.46287714654332E-14   0.00000000000000E+00  -6.46287714654332E-14
      4.16017320157259E-16   3.13158650899259E-02   3.13158650873153E-02   0.00000000000000E+00   0.00000000000000E+00
      6.52301650276721E-14   0.00000000000000E+00   6.52301650276721E-14   4.36716869532811E-16   0.00000000000000E+00
      0.00000000000000E+00   0.00000000000000E+00   0.00000000000000E+00   0.00000000000000E+00   0.00000000000000E+00
      0.00000000000000E+00  -5.75206096688668E-17
      7.84545729890833E-01
      0.00000000000000E+00   0.00000000000000E+00   0.00000000000000E+00   0.00000000000000E+00  -1.35911427449464E-18
     -8.46506887752865E-18  -9.82418315202329E-18  -7.95340168224919E-16   0.00000000000000E+00   3.08864824919156E-12
      0.00000000000000E+00   0.00000000000000E+00  -7.72176222024907E-14   0.00000000000000E+00  -7.72176222024907E-14
      4.15641803300649E-16   3.92272864945416E-02   3.92272864914257E-02   0.00000000000000E+00   0.00000000000000E+00
      7.78856927239953E-14   0.00000000000000E+00   7.78856927239953E-14   4.38355892558846E-16   0.00000000000000E+00
      0.00000000000000E+00   0.00000000000000E+00   0.00000000000000E+00   0.00000000000000E+00   0.00000000000000E+00
      0.00000000000000E+00  -5.86575276345743E-17
      9.80221552631663E-01
      0.00000000000000E+00   0.00000000000000E+00   0.00000000000000E+00   0.00000000000000E+00  -1.70614370248548E-18
     -1.23227474830178E-17  -1.40288911855033E-17  -7.95495817411201E-16   0.00000000000000E+00   3.68145140350656E-12
      0.00000000000000E+00   0.00000000000000E+00  -9.20207818188123E-14   0.00000000000000E+00  -9.20207818188123E-14
      4.15177191156696E-16   4.90110776315832E-02   4.90110776278737E-02   0.00000000000000E+00   0.00000000000000E+00
      9.27721725603932E-14   0.00000000000000E+00   9.27721725603932E-14   4.40380475664600E-16   0.00000000000000E+00
      0.00000000000000E+00   0.00000000000000E+00   0.00000000000000E+00   0.00000000000000E+00   0.00000000000000E+00
      0.00000000000000E+00  -6.00618494100964E-17
      1.00000000000000E+00
      0.00000000000000E+00   0.00000000000000E+00   0.00000000000000E+00   0.00000000000000E+00  -1.82079221548915E-18
     -1.27966057494022E-17  -1.46173979648913E-17  -7.95511495599640E-16   0.00000000000000E+00   3.74027130372688E-12
      0.00000000000000E+00   0.00000000000000E+00  -9.35021125561355E-14   0.00000000000000E+00  -9.35021125561355E-14
      4.15130215869758E-16   5.00000000000000E-02   4.99999999962316E-02   0.00000000000000E+00   0.00000000000000E+00
      9.42092505628321E-14   0.00000000000000E+00   9.42092505628321E-14   4.40584972527803E-16   0.00000000000000E+00
      0.00000000000000E+00   0.00000000000000E+00   0.00000000000000E+00   0.00000000000000E+00   0.00000000000000E+00
      0.00000000000000E+00  -6.02036927979235E-17
}
