DF-ISE text

Info {
  version   = 1.0
  type      = xyplot
  datasets  = [
    "time"
    "Substrate OuterVoltage" "Substrate InnerVoltage" "Substrate QuasiFermiPotential" "Substrate DisplacementCurrent" "Substrate eCurrent"
    "Substrate hCurrent" "Substrate TotalCurrent" "Substrate Charge" "source OuterVoltage" "source InnerVoltage"
    "source QuasiFermiPotential" "source DisplacementCurrent" "source eCurrent" "source hCurrent" "source TotalCurrent"
    "source Charge" "drain OuterVoltage" "drain InnerVoltage" "drain QuasiFermiPotential" "drain DisplacementCurrent"
    "drain eCurrent" "drain hCurrent" "drain TotalCurrent" "drain Charge" "gate OuterVoltage"
    "gate InnerVoltage" "gate QuasiFermiPotential" "gate DisplacementCurrent" "gate eCurrent" "gate hCurrent"
    "gate TotalCurrent" "gate Charge" ]
  functions = [
    Time
    OuterVoltage InnerVoltage QuasiFermiPotential DisplacementCurrent eCurrent
    hCurrent TotalCurrent Charge OuterVoltage InnerVoltage
    QuasiFermiPotential DisplacementCurrent eCurrent hCurrent TotalCurrent
    Charge OuterVoltage InnerVoltage QuasiFermiPotential DisplacementCurrent
    eCurrent hCurrent TotalCurrent Charge OuterVoltage
    InnerVoltage QuasiFermiPotential DisplacementCurrent eCurrent hCurrent
    TotalCurrent Charge ]
}

Data {
      0.00000000000000E+00
      0.00000000000000E+00   0.00000000000000E+00   0.00000000000000E+00   0.00000000000000E+00   1.43685230101184E-20
      1.16799336302406E-31   1.43685230102352E-20  -7.94697630438243E-16   0.00000000000000E+00  -2.06196124151480E-20
      0.00000000000000E+00   0.00000000000000E+00   7.51707788064873E-18   0.00000000000000E+00   7.51707788064873E-18
      4.30392962108888E-16   0.00000000000000E+00   1.08773647391015E-17   0.00000000000000E+00   0.00000000000000E+00
      1.03526297611467E-18   0.00000000000000E+00   1.03526297611467E-18   4.30258963908025E-16   0.00000000000000E+00
      0.00000000000000E+00   0.00000000000000E+00   0.00000000000000E+00   0.00000000000000E+00   0.00000000000000E+00
      0.00000000000000E+00  -6.59542955786687E-17
      0.00000000000000E+00
      0.00000000000000E+00   0.00000000000000E+00   0.00000000000000E+00   0.00000000000000E+00   4.29423649795530E-15
     -1.04206328651478E-26   4.29423649794488E-15  -7.94696111701919E-16   0.00000000000000E+00  -2.60076087564563E-22
      0.00000000000000E+00   0.00000000000000E+00  -1.02444794768709E-16   0.00000000000000E+00  -1.02444794768709E-16
      4.30392295183150E-16   0.00000000000000E+00  -5.11781100914087E-23   0.00000000000000E+00   0.00000000000000E+00
     -5.84782231373765E-17   0.00000000000000E+00  -5.84782231373765E-17   4.30258296844501E-16   0.00000000000000E+00
      0.00000000000000E+00   0.00000000000000E+00   0.00000000000000E+00   0.00000000000000E+00   0.00000000000000E+00
      0.00000000000000E+00  -6.59544803257298E-17
      0.00000000000000E+00
      0.00000000000000E+00   0.00000000000000E+00   0.00000000000000E+00   0.00000000000000E+00  -1.10549514890455E-20
     -7.76496725265907E-31  -1.10549514898220E-20  -7.94696111420480E-16   0.00000000000000E+00   1.34805800514256E-25
      0.00000000000000E+00   0.00000000000000E+00   7.49183770350891E-18   0.00000000000000E+00   7.49183770350891E-18
      4.30392295059552E-16   0.00000000000000E+00  -4.50226102264267E-26   0.00000000000000E+00   0.00000000000000E+00
     -4.02077002458519E-18   0.00000000000000E+00  -4.02077002458519E-18   4.30258296720878E-16   0.00000000000000E+00
      0.00000000000000E+00   0.00000000000000E+00   0.00000000000000E+00   0.00000000000000E+00   0.00000000000000E+00
      0.00000000000000E+00  -6.59544803599537E-17
      1.00000000000000E-02
      0.00000000000000E+00   0.00000000000000E+00   0.00000000000000E+00   0.00000000000000E+00  -4.26324583712776E-17
     -1.46148964121085E-18  -4.40939480124884E-17  -7.94835038765486E-16   0.00000000000000E+00   2.07734646057651E-13
      0.00000000000000E+00   0.00000000000000E+00  -2.07728361927757E-14   0.00000000000000E+00  -2.07728361927757E-14
      4.29989984213478E-16   8.50000000000000E-03   8.49999999978836E-03   0.00000000000000E+00   0.00000000000000E+00
      2.11648010911698E-14   0.00000000000000E+00   2.11648010911698E-14   4.32026486687870E-16   0.00000000000000E+00
      0.00000000000000E+00   0.00000000000000E+00   0.00000000000000E+00   0.00000000000000E+00   0.00000000000000E+00
      0.00000000000000E+00  -6.71814321358613E-17
      2.30333333333333E-02
      0.00000000000000E+00   0.00000000000000E+00   0.00000000000000E+00   0.00000000000000E+00  -6.94030480514282E-14
     -3.51210587762784E-18  -6.94065601573058E-14  -7.95014892302130E-16   0.00000000000000E+00   4.34266127144438E-13
      0.00000000000000E+00   0.00000000000000E+00  -4.34963755945647E-14   0.00000000000000E+00  -4.34963755945647E-14
      4.29465322843529E-16   1.95783333333333E-02   1.95783333328932E-02   0.00000000000000E+00   0.00000000000000E+00
      3.83858788029113E-14   0.00000000000000E+00   3.83858788029113E-14   4.34328008520375E-16   0.00000000000000E+00
      0.00000000000000E+00   0.00000000000000E+00   0.00000000000000E+00   0.00000000000000E+00   0.00000000000000E+00
      0.00000000000000E+00  -6.87784390617730E-17
      4.06283333333333E-02
      0.00000000000000E+00   0.00000000000000E+00   0.00000000000000E+00   0.00000000000000E+00  -1.66164929057095E-13
     -7.04070999203703E-18  -1.66171969767087E-13  -7.95255575680098E-16   0.00000000000000E+00   6.89925878989280E-13
      0.00000000000000E+00   0.00000000000000E+00  -6.90622916704845E-14   0.00000000000000E+00  -6.90622916704845E-14
      4.28756487758488E-16   3.45340833333333E-02   3.45340833326367E-02   0.00000000000000E+00   0.00000000000000E+00
      5.10586512825892E-14   0.00000000000000E+00   5.10586512825892E-14   4.37429697446962E-16   0.00000000000000E+00
      0.00000000000000E+00   0.00000000000000E+00   0.00000000000000E+00   0.00000000000000E+00   0.00000000000000E+00
      0.00000000000000E+00  -7.09306095253511E-17
      6.43815833333333E-02
      0.00000000000000E+00   0.00000000000000E+00   0.00000000000000E+00   0.00000000000000E+00  -3.55900608278347E-13
     -1.53710175850087E-17  -3.55915979295932E-13  -7.95576779115990E-16   0.00000000000000E+00   9.93247208153835E-13
      0.00000000000000E+00   0.00000000000000E+00  -9.96379632483541E-14   0.00000000000000E+00  -9.96379632483541E-14
      4.27798629768301E-16   5.47243458333333E-02   5.47243458323330E-02   0.00000000000000E+00   0.00000000000000E+00
      3.76434514970392E-14   0.00000000000000E+00   3.76434514970392E-14   4.41607343482831E-16   0.00000000000000E+00
      0.00000000000000E+00   0.00000000000000E+00   0.00000000000000E+00   0.00000000000000E+00   0.00000000000000E+00
      0.00000000000000E+00  -7.38291941351410E-17
      9.64484708333334E-02
      0.00000000000000E+00   0.00000000000000E+00   0.00000000000000E+00   0.00000000000000E+00   5.56213248886456E-19
     -4.61688891153982E-17  -4.56126758665118E-17  -7.96003946472665E-16   0.00000000000000E+00   1.40636464455205E-12
      0.00000000000000E+00   0.00000000000000E+00  -1.40635474937047E-13   0.00000000000000E+00  -1.40635474937047E-13
      4.26503953870091E-16   8.19812002083334E-02   8.19812002069193E-02   0.00000000000000E+00   0.00000000000000E+00
      1.41401441738988E-13   0.00000000000000E+00   1.41401441738988E-13   4.47229984381380E-16   0.00000000000000E+00
      0.00000000000000E+00   0.00000000000000E+00   0.00000000000000E+00   0.00000000000000E+00   0.00000000000000E+00
      0.00000000000000E+00  -7.77299917788077E-17
      1.38990541583333E-01
      0.00000000000000E+00   0.00000000000000E+00   0.00000000000000E+00   0.00000000000000E+00   1.06974616937837E-17
     -2.27481104834844E-16  -2.16783643141060E-16  -7.96559914242134E-16   0.00000000000000E+00   2.08778710833403E-12
      0.00000000000000E+00   0.00000000000000E+00  -2.08867371397370E-13   0.00000000000000E+00  -2.08867371397370E-13
      4.24783850200393E-16   1.18141960345833E-01   1.18141960343735E-01   0.00000000000000E+00   0.00000000000000E+00
      2.09811825809822E-13   0.00000000000000E+00   2.09811825809822E-13   4.54659847668295E-16   0.00000000000000E+00
      0.00000000000000E+00   0.00000000000000E+00   0.00000000000000E+00   0.00000000000000E+00   0.00000000000000E+00
      0.00000000000000E+00  -8.28837836265558E-17
      1.95429688778333E-01
      0.00000000000000E+00   0.00000000000000E+00   0.00000000000000E+00   0.00000000000000E+00   5.58606376369203E-17
     -1.85843488720761E-15  -1.80257424957069E-15  -7.97280090519152E-16   0.00000000000000E+00   3.48122553704512E-12
      0.00000000000000E+00   0.00000000000000E+00  -3.48096961650730E-13   0.00000000000000E+00  -3.48096961650730E-13
      4.22498043320578E-16   1.66115235461583E-01   1.66115235458073E-01   0.00000000000000E+00   0.00000000000000E+00
      3.51031694146659E-13   0.00000000000000E+00   3.51031694146659E-13   4.64466943355848E-16   0.00000000000000E+00
      0.00000000000000E+00   0.00000000000000E+00   0.00000000000000E+00   0.00000000000000E+00   0.00000000000000E+00
      0.00000000000000E+00  -8.96848961572749E-17
      2.70305624057033E-01
      0.00000000000000E+00   0.00000000000000E+00   0.00000000000000E+00   0.00000000000000E+00   2.72419065503350E-16
     -2.14358343480326E-14  -2.11634152825292E-14  -7.98208001128637E-16   0.00000000000000E+00   6.97288539379765E-12
      0.00000000000000E+00   0.00000000000000E+00  -6.97287759970399E-13   0.00000000000000E+00  -6.97287759970399E-13
      4.19460175854296E-16   2.29759780448478E-01   2.29759780441265E-01   0.00000000000000E+00   0.00000000000000E+00
      7.21343055429239E-13   0.00000000000000E+00   7.21343055429239E-13   4.77393494550879E-16   0.00000000000000E+00
      0.00000000000000E+00   0.00000000000000E+00   0.00000000000000E+00   0.00000000000000E+00   0.00000000000000E+00
      0.00000000000000E+00  -9.86456692765391E-17
      3.69641031526775E-01
      0.00000000000000E+00   0.00000000000000E+00   0.00000000000000E+00   0.00000000000000E+00  -7.93377855316126E-16
     -4.27421634249359E-13  -4.28215012104675E-13  -7.99396730758664E-16   0.00000000000000E+00   1.78687991991918E-11
      0.00000000000000E+00   0.00000000000000E+00  -1.78691229994661E-12   0.00000000000000E+00  -1.78691229994661E-12
      4.15423510815287E-16   3.14194876797759E-01   3.14194876775446E-01   0.00000000000000E+00   0.00000000000000E+00
      2.23129741301077E-12   0.00000000000000E+00   2.23129741301077E-12   4.94397397382186E-16   0.00000000000000E+00
      0.00000000000000E+00   0.00000000000000E+00   0.00000000000000E+00   0.00000000000000E+00   0.00000000000000E+00
      0.00000000000000E+00  -1.10424177438810E-16
      5.01426005436633E-01
      0.00000000000000E+00   0.00000000000000E+00   0.00000000000000E+00   0.00000000000000E+00   6.49324396585521E-18
     -9.15628321290186E-12  -9.15627671965789E-12  -8.00910073216875E-16   0.00000000000000E+00   6.18900075431716E-11
      0.00000000000000E+00   0.00000000000000E+00  -6.18898770869544E-12   0.00000000000000E+00  -6.18898770869544E-12
      4.10063055044702E-16   4.26212104621138E-01   4.26212104465776E-01   0.00000000000000E+00   0.00000000000000E+00
      1.55362077005878E-11   0.00000000000000E+00   1.55362077005878E-11   5.16695994081283E-16   0.00000000000000E+00
      0.00000000000000E+00   0.00000000000000E+00   0.00000000000000E+00   0.00000000000000E+00   0.00000000000000E+00
      0.00000000000000E+00  -1.25848975909110E-16
      6.73185754765814E-01
      0.00000000000000E+00   0.00000000000000E+00   0.00000000000000E+00   0.00000000000000E+00  -5.72196355676649E-18
     -2.56053211710039E-10  -2.56053217432003E-10  -8.02787637877296E-16   0.00000000000000E+00   2.93255237833531E-10
      0.00000000000000E+00   0.00000000000000E+00  -2.93255277768808E-11   0.00000000000000E+00  -2.93255277768808E-11
      4.03075537334802E-16   5.72207891550942E-01   5.72207886301005E-01   0.00000000000000E+00   0.00000000000000E+00
      5.24993819697503E-10   0.00000000000000E+00   5.24993819697503E-10   5.45316601247355E-16   0.00000000000000E+00
      0.00000000000000E+00   0.00000000000000E+00   0.00000000000000E+00   0.00000000000000E+00   0.00000000000000E+00
      0.00000000000000E+00  -1.45604500704862E-16
      8.73185754765814E-01
      0.00000000000000E+00   0.00000000000000E+00   0.00000000000000E+00   0.00000000000000E+00  -2.19351966271610E-14
     -9.49119240395749E-10  -9.49141175592376E-10  -8.04848985636491E-16   0.00000000000000E+00   1.57256812295456E-09
      0.00000000000000E+00   0.00000000000000E+00  -1.57256938064063E-10   0.00000000000000E+00  -1.57256938064063E-10
      3.94939680010669E-16   7.42207891550942E-01   7.42207757216763E-01   0.00000000000000E+00   0.00000000000000E+00
      1.34334182544154E-08   0.00000000000000E+00   1.34334182544154E-08   5.78065218843304E-16   0.00000000000000E+00
      0.00000000000000E+00   0.00000000000000E+00   0.00000000000000E+00   0.00000000000000E+00   0.00000000000000E+00
      0.00000000000000E+00  -1.68155913217482E-16
      1.00000000000000E+00
      0.00000000000000E+00   0.00000000000000E+00   0.00000000000000E+00   0.00000000000000E+00   7.39365536187843E-15
     -1.95646845455404E-09  -1.95646106089868E-09  -8.06090568591440E-16   0.00000000000000E+00   4.18795680518056E-09
      0.00000000000000E+00   0.00000000000000E+00  -4.18795714729015E-10   0.00000000000000E+00  -4.18795714729015E-10
      3.89782592004374E-16   8.50000000000000E-01   8.49999719666251E-01   0.00000000000000E+00   0.00000000000000E+00
      2.80333715835844E-08   0.00000000000000E+00   2.80333715835844E-08   5.98526139399189E-16   0.00000000000000E+00
      0.00000000000000E+00   0.00000000000000E+00   0.00000000000000E+00   0.00000000000000E+00   0.00000000000000E+00
      0.00000000000000E+00  -1.82218162812120E-16
}
