DF-ISE text

Info {
  version   = 1.0
  type      = xyplot
  datasets  = [
    "time"
    "Substrate OuterVoltage" "Substrate InnerVoltage" "Substrate QuasiFermiPotential" "Substrate DisplacementCurrent" "Substrate eCurrent"
    "Substrate hCurrent" "Substrate TotalCurrent" "Substrate Charge" "source OuterVoltage" "source InnerVoltage"
    "source QuasiFermiPotential" "source DisplacementCurrent" "source eCurrent" "source hCurrent" "source TotalCurrent"
    "source Charge" "drain OuterVoltage" "drain InnerVoltage" "drain QuasiFermiPotential" "drain DisplacementCurrent"
    "drain eCurrent" "drain hCurrent" "drain TotalCurrent" "drain Charge" "gate OuterVoltage"
    "gate InnerVoltage" "gate QuasiFermiPotential" "gate DisplacementCurrent" "gate eCurrent" "gate hCurrent"
    "gate TotalCurrent" "gate Charge" ]
  functions = [
    Time
    OuterVoltage InnerVoltage QuasiFermiPotential DisplacementCurrent eCurrent
    hCurrent TotalCurrent Charge OuterVoltage InnerVoltage
    QuasiFermiPotential DisplacementCurrent eCurrent hCurrent TotalCurrent
    Charge OuterVoltage InnerVoltage QuasiFermiPotential DisplacementCurrent
    eCurrent hCurrent TotalCurrent Charge OuterVoltage
    InnerVoltage QuasiFermiPotential DisplacementCurrent eCurrent hCurrent
    TotalCurrent Charge ]
}

Data {
      0.00000000000000E+00
      0.00000000000000E+00   0.00000000000000E+00   0.00000000000000E+00   0.00000000000000E+00   1.78681252394227E-20
      7.14299995620009E-32   1.78681252394942E-20  -7.94833074449817E-16   0.00000000000000E+00  -6.11419120404450E-18
      0.00000000000000E+00   0.00000000000000E+00   8.25480252434182E-18   0.00000000000000E+00   8.25480252434182E-18
      4.17671590124947E-16   0.00000000000000E+00  -7.67422418918559E-18   0.00000000000000E+00   0.00000000000000E+00
      4.46995066104172E-20   0.00000000000000E+00   4.46995066104172E-20   4.30386320366813E-16   0.00000000000000E+00
      0.00000000000000E+00   0.00000000000000E+00   0.00000000000000E+00   0.00000000000000E+00   0.00000000000000E+00
      0.00000000000000E+00  -5.32248360419402E-17
      0.00000000000000E+00
      0.00000000000000E+00   0.00000000000000E+00   0.00000000000000E+00   0.00000000000000E+00   2.07864945062948E-18
     -6.18713490488219E-30   2.07864945062329E-18  -7.94833039263456E-16   0.00000000000000E+00   8.29844459006975E-24
      0.00000000000000E+00   0.00000000000000E+00   1.43737027223015E-18   0.00000000000000E+00   1.43737027223015E-18
      4.17671574663619E-16   0.00000000000000E+00  -9.37013077132739E-24   0.00000000000000E+00   0.00000000000000E+00
     -4.93683158953132E-17   0.00000000000000E+00  -4.93683158953132E-17   4.30386304909667E-16   0.00000000000000E+00
      0.00000000000000E+00   0.00000000000000E+00   0.00000000000000E+00   0.00000000000000E+00   0.00000000000000E+00
      0.00000000000000E+00  -5.32248403098304E-17
      0.00000000000000E+00
      0.00000000000000E+00   0.00000000000000E+00   0.00000000000000E+00   0.00000000000000E+00   1.87318997339742E-20
     -8.35650254069353E-31   1.87318997331385E-20  -7.94833039263275E-16   0.00000000000000E+00  -6.34125965693332E-27
      0.00000000000000E+00   0.00000000000000E+00   1.30598764834341E-17   0.00000000000000E+00   1.30598764834341E-17
      4.17671574663541E-16   0.00000000000000E+00  -2.06318712064205E-27   0.00000000000000E+00   0.00000000000000E+00
      1.26232407037513E-17   0.00000000000000E+00   1.26232407037513E-17   4.30386304909589E-16   0.00000000000000E+00
      0.00000000000000E+00   0.00000000000000E+00   0.00000000000000E+00   0.00000000000000E+00   0.00000000000000E+00
      0.00000000000000E+00  -5.32248403098520E-17
      1.00000000000000E-02
      0.00000000000000E+00   0.00000000000000E+00   0.00000000000000E+00   0.00000000000000E+00   2.86811270810452E-18
     -8.58818669578656E-20   2.78223084114665E-18  -7.94841231722588E-16   0.00000000000000E+00   5.39324969773554E-14
      0.00000000000000E+00   0.00000000000000E+00  -1.36876134665180E-15   0.00000000000000E+00  -1.36876134665180E-15
      4.17647875785070E-16   5.00000000000000E-04   4.99999999944764E-04   0.00000000000000E+00   0.00000000000000E+00
      1.25954921570741E-15   0.00000000000000E+00   1.25954921570741E-15   4.30490448539457E-16   0.00000000000000E+00
      0.00000000000000E+00   0.00000000000000E+00   0.00000000000000E+00   0.00000000000000E+00   0.00000000000000E+00
      0.00000000000000E+00  -5.32970926019365E-17
      2.23666666666667E-02
      0.00000000000000E+00   0.00000000000000E+00   0.00000000000000E+00   0.00000000000000E+00  -1.06748569152041E-19
     -1.92088209365363E-19  -2.98836778517404E-19  -7.94851359110712E-16   0.00000000000000E+00   1.19841436015479E-13
      0.00000000000000E+00   0.00000000000000E+00  -2.96408824849326E-15   0.00000000000000E+00  -2.96408824849326E-15
      4.17618567126896E-16   1.11833333333333E-03   1.11833333321067E-03   0.00000000000000E+00   0.00000000000000E+00
      3.07502467706086E-15   0.00000000000000E+00   3.07502467706086E-15   4.30619229849386E-16   0.00000000000000E+00
      0.00000000000000E+00   0.00000000000000E+00   0.00000000000000E+00   0.00000000000000E+00   0.00000000000000E+00
      0.00000000000000E+00  -5.33864378655682E-17
      3.76601111111111E-02
      0.00000000000000E+00   0.00000000000000E+00   0.00000000000000E+00   0.00000000000000E+00  -1.81976100203826E-19
     -3.23474852649491E-19  -5.05450952853317E-19  -7.94863877278201E-16   0.00000000000000E+00   2.00169378611138E-13
      0.00000000000000E+00   0.00000000000000E+00  -4.96321320211699E-15   0.00000000000000E+00  -4.96321320211699E-15
      4.17582320491997E-16   1.88300555555556E-03   1.88300555535080E-03   0.00000000000000E+00   0.00000000000000E+00
      5.09894181317444E-15   0.00000000000000E+00   5.09894181317444E-15   4.30778474658749E-16   0.00000000000000E+00
      0.00000000000000E+00   0.00000000000000E+00   0.00000000000000E+00   0.00000000000000E+00   0.00000000000000E+00
      0.00000000000000E+00  -5.34969178725464E-17
      5.65730040740741E-02
      0.00000000000000E+00   0.00000000000000E+00   0.00000000000000E+00   0.00000000000000E+00  -1.48450845496386E-19
     -4.86113824142418E-19  -6.34564669638804E-19  -7.94879348866672E-16   0.00000000000000E+00   2.97755891792841E-13
      0.00000000000000E+00   0.00000000000000E+00  -7.40021943520532E-15   0.00000000000000E+00  -7.40021943520532E-15
      4.17537493056304E-16   2.82865020370370E-03   2.82865020339937E-03   0.00000000000000E+00   0.00000000000000E+00
      7.58937429296421E-15   0.00000000000000E+00   7.58937429296421E-15   4.30975384872354E-16   0.00000000000000E+00
      0.00000000000000E+00   0.00000000000000E+00   0.00000000000000E+00   0.00000000000000E+00   0.00000000000000E+00
      0.00000000000000E+00  -5.36335290619866E-17
      7.99619483716049E-02
      0.00000000000000E+00   0.00000000000000E+00   0.00000000000000E+00   0.00000000000000E+00  -3.82191910458237E-19
     -6.87656838711890E-19  -1.06984874917013E-18  -7.94898468011592E-16   0.00000000000000E+00   4.15849325539593E-13
      0.00000000000000E+00   0.00000000000000E+00  -1.04002543526230E-14   0.00000000000000E+00  -1.04002543526230E-14
      4.17482052758135E-16   3.99809741858025E-03   3.99809741815560E-03   0.00000000000000E+00   0.00000000000000E+00
      1.06160310389582E-14   0.00000000000000E+00   1.06160310389582E-14   4.31218862735363E-16   0.00000000000000E+00
      0.00000000000000E+00   0.00000000000000E+00   0.00000000000000E+00   0.00000000000000E+00   0.00000000000000E+00
      0.00000000000000E+00  -5.38024474819042E-17
      1.08886276152885E-01
      0.00000000000000E+00   0.00000000000000E+00   0.00000000000000E+00   0.00000000000000E+00  -1.82612253040331E-19
     -9.37864345414304E-19  -1.12047659845464E-18  -7.94922090595880E-16   0.00000000000000E+00   5.58100529545394E-13
      0.00000000000000E+00   0.00000000000000E+00  -1.39360963987262E-14   0.00000000000000E+00  -1.39360963987262E-14
      4.17413485953808E-16   5.44431380764424E-03   5.44431380707494E-03   0.00000000000000E+00   0.00000000000000E+00
      1.42819509122384E-14   0.00000000000000E+00   1.42819509122384E-14   4.31519911083366E-16   0.00000000000000E+00
      0.00000000000000E+00   0.00000000000000E+00   0.00000000000000E+00   0.00000000000000E+00   0.00000000000000E+00
      0.00000000000000E+00  -5.40113064412936E-17
      1.44656028175734E-01
      0.00000000000000E+00   0.00000000000000E+00   0.00000000000000E+00   0.00000000000000E+00  -5.82652375979608E-19
     -1.24942161496165E-18  -1.83207399094125E-18  -7.94951271217422E-16   0.00000000000000E+00   7.28525712821240E-13
      0.00000000000000E+00   0.00000000000000E+00  -1.82202378084609E-14   0.00000000000000E+00  -1.82202378084609E-14
      4.17328683104514E-16   7.23280140878671E-03   7.23280140804445E-03   0.00000000000000E+00   0.00000000000000E+00
      1.85329287843478E-14   0.00000000000000E+00   1.85329287843478E-14   4.31892127183995E-16   0.00000000000000E+00
      0.00000000000000E+00   0.00000000000000E+00   0.00000000000000E+00   0.00000000000000E+00   0.00000000000000E+00
      0.00000000000000E+00  -5.42695390710867E-17
      1.88891288177325E-01
      0.00000000000000E+00   0.00000000000000E+00   0.00000000000000E+00   0.00000000000000E+00  -4.99466138744804E-19
     -1.63928058464305E-18  -2.13874672338785E-18  -7.94987308234222E-16   0.00000000000000E+00   9.31428577297322E-13
      0.00000000000000E+00   0.00000000000000E+00  -2.32761359822217E-14   0.00000000000000E+00  -2.32761359822217E-14
      4.17223797239268E-16   9.44456440886623E-03   9.44456440791851E-03   0.00000000000000E+00   0.00000000000000E+00
      2.36883161641541E-14   0.00000000000000E+00   2.36883161641541E-14   4.32352311730035E-16   0.00000000000000E+00
      0.00000000000000E+00   0.00000000000000E+00   0.00000000000000E+00   0.00000000000000E+00   0.00000000000000E+00
      0.00000000000000E+00  -5.45888007350810E-17
      2.43595559712625E-01
      0.00000000000000E+00   0.00000000000000E+00   0.00000000000000E+00   0.00000000000000E+00  -4.16744140765271E-19
     -2.13101435310495E-18  -2.54775849387022E-18  -7.95031798463595E-16   0.00000000000000E+00   1.17131186618207E-12
      0.00000000000000E+00   0.00000000000000E+00  -2.92646215079346E-14   0.00000000000000E+00  -2.92646215079346E-14
      4.17094068669157E-16   1.21797779856312E-02   1.21797779844411E-02   0.00000000000000E+00   0.00000000000000E+00
      2.97962214098223E-14   0.00000000000000E+00   2.97962214098223E-14   4.32921219344173E-16   0.00000000000000E+00
      0.00000000000000E+00   0.00000000000000E+00   0.00000000000000E+00   0.00000000000000E+00   0.00000000000000E+00
      0.00000000000000E+00  -5.49834895497324E-17
      3.11246508844612E-01
      0.00000000000000E+00   0.00000000000000E+00   0.00000000000000E+00   0.00000000000000E+00  -8.44335631818541E-19
     -2.75921284432814E-18  -3.60354847614668E-18  -7.95086703324079E-16   0.00000000000000E+00   1.45278637967174E-12
      0.00000000000000E+00   0.00000000000000E+00  -3.62880271381519E-14   0.00000000000000E+00  -3.62880271381519E-14
      4.16933607847116E-16   1.55623254422306E-02   1.55623254407568E-02   0.00000000000000E+00   0.00000000000000E+00
      3.68605256797708E-14   0.00000000000000E+00   3.68605256797708E-14   4.33624482741315E-16   0.00000000000000E+00
      0.00000000000000E+00   0.00000000000000E+00   0.00000000000000E+00   0.00000000000000E+00   0.00000000000000E+00
      0.00000000000000E+00  -5.54713872643519E-17
      3.94908182604504E-01
      0.00000000000000E+00   0.00000000000000E+00   0.00000000000000E+00   0.00000000000000E+00  -8.73230576963515E-19
     -3.57819098933493E-18  -4.45142156629844E-18  -7.95154428400014E-16   0.00000000000000E+00   1.78063865429019E-12
      0.00000000000000E+00   0.00000000000000E+00  -4.44951185997687E-14   0.00000000000000E+00  -4.44951185997687E-14
      4.16735126298398E-16   1.97454091302252E-02   1.97454091284215E-02   0.00000000000000E+00   0.00000000000000E+00
      4.50679614935388E-14   0.00000000000000E+00   4.50679614935388E-14   4.34493749629704E-16   0.00000000000000E+00
      0.00000000000000E+00   0.00000000000000E+00   0.00000000000000E+00   0.00000000000000E+00   0.00000000000000E+00
      0.00000000000000E+00  -5.60744475280862E-17
      4.98369785820903E-01
      0.00000000000000E+00   0.00000000000000E+00   0.00000000000000E+00   0.00000000000000E+00  -8.74206659269996E-19
     -4.68029362354073E-18  -5.55450028281073E-18  -7.95237918546733E-16   0.00000000000000E+00   2.16011106545516E-12
      0.00000000000000E+00   0.00000000000000E+00  -5.39629427926697E-14   0.00000000000000E+00  -5.39629427926697E-14
      4.16489603093935E-16   2.49184892910452E-02   2.49184892888605E-02   0.00000000000000E+00   0.00000000000000E+00
      5.46613055941622E-14   0.00000000000000E+00   5.46613055941622E-14   4.35568079691974E-16   0.00000000000000E+00
      0.00000000000000E+00   0.00000000000000E+00   0.00000000000000E+00   0.00000000000000E+00   0.00000000000000E+00
      0.00000000000000E+00  -5.68197642391740E-17
      6.26317301798517E-01
      0.00000000000000E+00   0.00000000000000E+00   0.00000000000000E+00   0.00000000000000E+00  -1.43392515497132E-18
     -6.23691283421257E-18  -7.67083798918389E-18  -7.95340770693462E-16   0.00000000000000E+00   2.59806800104511E-12
      0.00000000000000E+00   0.00000000000000E+00  -6.49361091686723E-14   0.00000000000000E+00  -6.49361091686723E-14
      4.16185871285252E-16   3.13158650899259E-02   3.13158650873020E-02   0.00000000000000E+00   0.00000000000000E+00
      6.55854099477778E-14   0.00000000000000E+00   6.55854099477778E-14   4.36895658758395E-16   0.00000000000000E+00
      0.00000000000000E+00   0.00000000000000E+00   0.00000000000000E+00   0.00000000000000E+00   0.00000000000000E+00
      0.00000000000000E+00  -5.77407593501854E-17
      7.84545729890833E-01
      0.00000000000000E+00   0.00000000000000E+00   0.00000000000000E+00   0.00000000000000E+00  -1.53298248799088E-18
     -8.59734192645528E-18  -1.01303244144462E-17  -7.95467366382159E-16   0.00000000000000E+00   3.10525167919810E-12
      0.00000000000000E+00   0.00000000000000E+00  -7.76223573039284E-14   0.00000000000000E+00  -7.76223573039284E-14
      4.15810104923464E-16   3.92272864945416E-02   3.92272864914097E-02   0.00000000000000E+00   0.00000000000000E+00
      7.82412314927971E-14   0.00000000000000E+00   7.82412314927971E-14   4.38535898769727E-16   0.00000000000000E+00
      0.00000000000000E+00   0.00000000000000E+00   0.00000000000000E+00   0.00000000000000E+00   0.00000000000000E+00
      0.00000000000000E+00  -5.88786373110302E-17
      9.80221552631663E-01
      0.00000000000000E+00   0.00000000000000E+00   0.00000000000000E+00   0.00000000000000E+00  -1.92628308132778E-18
     -1.25486721829432E-17  -1.44749552642710E-17  -7.95623025736196E-16   0.00000000000000E+00   3.70098968606201E-12
      0.00000000000000E+00   0.00000000000000E+00  -9.25320836454832E-14   0.00000000000000E+00  -9.25320836454832E-14
      4.15345182579429E-16   4.90110776315832E-02   4.90110776278548E-02   0.00000000000000E+00   0.00000000000000E+00
      9.32532040256440E-14   0.00000000000000E+00   9.32532040256440E-14   4.40562005569500E-16   0.00000000000000E+00
      0.00000000000000E+00   0.00000000000000E+00   0.00000000000000E+00   0.00000000000000E+00   0.00000000000000E+00
      0.00000000000000E+00  -6.02841624127315E-17
      1.00000000000000E+00
      0.00000000000000E+00   0.00000000000000E+00   0.00000000000000E+00   0.00000000000000E+00  -1.48831216649700E-18
     -1.30347441499863E-17  -1.45230563164833E-17  -7.95638705007641E-16   0.00000000000000E+00   3.76012468071043E-12
      0.00000000000000E+00   0.00000000000000E+00  -9.39791110289170E-14   0.00000000000000E+00  -9.39791110289170E-14
      4.15298175828455E-16   5.00000000000000E-02   4.99999999962124E-02   0.00000000000000E+00   0.00000000000000E+00
      9.47402436630122E-14   0.00000000000000E+00   9.47402436630122E-14   4.40766657690156E-16   0.00000000000000E+00
      0.00000000000000E+00   0.00000000000000E+00   0.00000000000000E+00   0.00000000000000E+00   0.00000000000000E+00
      0.00000000000000E+00  -6.04261285109692E-17
}
