DF-ISE text

Info {
  version   = 1.0
  type      = xyplot
  datasets  = [
    "time"
    "Substrate OuterVoltage" "Substrate InnerVoltage" "Substrate QuasiFermiPotential" "Substrate DisplacementCurrent" "Substrate eCurrent"
    "Substrate hCurrent" "Substrate TotalCurrent" "Substrate Charge" "source OuterVoltage" "source InnerVoltage"
    "source QuasiFermiPotential" "source DisplacementCurrent" "source eCurrent" "source hCurrent" "source TotalCurrent"
    "source Charge" "drain OuterVoltage" "drain InnerVoltage" "drain QuasiFermiPotential" "drain DisplacementCurrent"
    "drain eCurrent" "drain hCurrent" "drain TotalCurrent" "drain Charge" "gate OuterVoltage"
    "gate InnerVoltage" "gate QuasiFermiPotential" "gate DisplacementCurrent" "gate eCurrent" "gate hCurrent"
    "gate TotalCurrent" "gate Charge" ]
  functions = [
    Time
    OuterVoltage InnerVoltage QuasiFermiPotential DisplacementCurrent eCurrent
    hCurrent TotalCurrent Charge OuterVoltage InnerVoltage
    QuasiFermiPotential DisplacementCurrent eCurrent hCurrent TotalCurrent
    Charge OuterVoltage InnerVoltage QuasiFermiPotential DisplacementCurrent
    eCurrent hCurrent TotalCurrent Charge OuterVoltage
    InnerVoltage QuasiFermiPotential DisplacementCurrent eCurrent hCurrent
    TotalCurrent Charge ]
}

Data {
      0.00000000000000E+00
      0.00000000000000E+00   0.00000000000000E+00   0.00000000000000E+00   0.00000000000000E+00  -4.23629802598324E-20
      5.20763567590713E-32  -4.23629802597803E-20  -7.94824883553550E-16   0.00000000000000E+00  -3.66658303862471E-18
      0.00000000000000E+00   0.00000000000000E+00   7.48292748610189E-18   0.00000000000000E+00   7.48292748610189E-18
      4.30567323247169E-16   0.00000000000000E+00  -7.37614990306643E-18   0.00000000000000E+00   0.00000000000000E+00
      3.72480228172110E-18   0.00000000000000E+00   3.72480228172110E-18   4.30432656392636E-16   0.00000000000000E+00
      0.00000000000000E+00   0.00000000000000E+00   0.00000000000000E+00   0.00000000000000E+00   0.00000000000000E+00
      0.00000000000000E+00  -6.61750960862587E-17
      0.00000000000000E+00
      0.00000000000000E+00   0.00000000000000E+00   0.00000000000000E+00   0.00000000000000E+00   4.30392490599117E-15
     -1.04546322233311E-26   4.30392490598071E-15  -7.94823363075403E-16   0.00000000000000E+00  -1.85755153417682E-22
      0.00000000000000E+00   0.00000000000000E+00  -1.38644244773929E-16   0.00000000000000E+00  -1.38644244773929E-16
      4.30566655464354E-16   0.00000000000000E+00  -1.08451263428718E-22   0.00000000000000E+00   0.00000000000000E+00
     -1.53502651000764E-16   0.00000000000000E+00  -1.53502651000764E-16   4.30431988472060E-16   0.00000000000000E+00
      0.00000000000000E+00   0.00000000000000E+00   0.00000000000000E+00   0.00000000000000E+00   0.00000000000000E+00
      0.00000000000000E+00  -6.61752808610119E-17
      0.00000000000000E+00
      0.00000000000000E+00   0.00000000000000E+00   0.00000000000000E+00   0.00000000000000E+00   7.00302535321902E-20
     -6.63413490195871E-31   7.00302535315268E-20  -7.94823362793328E-16   0.00000000000000E+00   8.10940962103683E-26
      0.00000000000000E+00   0.00000000000000E+00  -6.07220999914379E-18   0.00000000000000E+00  -6.07220999914379E-18
      4.30566655340463E-16   0.00000000000000E+00   6.28446760846789E-26   0.00000000000000E+00   0.00000000000000E+00
     -4.55300646394853E-18   0.00000000000000E+00  -4.55300646394853E-18   4.30431988348143E-16   0.00000000000000E+00
      0.00000000000000E+00   0.00000000000000E+00   0.00000000000000E+00   0.00000000000000E+00   0.00000000000000E+00
      0.00000000000000E+00  -6.61752808952786E-17
      1.00000000000000E-02
      0.00000000000000E+00   0.00000000000000E+00   0.00000000000000E+00   0.00000000000000E+00  -4.73002413438117E-17
     -1.47386341652828E-18  -4.87741047603400E-17  -7.94962294576600E-16   0.00000000000000E+00   2.08898505045513E-13
      0.00000000000000E+00   0.00000000000000E+00  -2.08569870284409E-14   0.00000000000000E+00  -2.08569870284409E-14
      4.30164073960439E-16   8.50000000000000E-03   8.49999999978729E-03   0.00000000000000E+00   0.00000000000000E+00
      2.13060488850172E-14   0.00000000000000E+00   2.13060488850172E-14   4.32201441856200E-16   0.00000000000000E+00
      0.00000000000000E+00   0.00000000000000E+00   0.00000000000000E+00   0.00000000000000E+00   0.00000000000000E+00
      0.00000000000000E+00  -6.74032212400373E-17
      2.30333333333333E-02
      0.00000000000000E+00   0.00000000000000E+00   0.00000000000000E+00   0.00000000000000E+00  -7.50396359924925E-14
     -3.54973310930803E-18  -7.50431857256018E-14  -7.95142155224469E-16   0.00000000000000E+00   4.36678143782325E-13
      0.00000000000000E+00   0.00000000000000E+00  -4.36745935801380E-14   0.00000000000000E+00  -4.36745935801380E-14
      4.29639058639709E-16   1.95783333333333E-02   1.95783333328909E-02   0.00000000000000E+00   0.00000000000000E+00
      3.86662584272772E-14   0.00000000000000E+00   3.86662584272772E-14   4.34504626789545E-16   0.00000000000000E+00
      0.00000000000000E+00   0.00000000000000E+00   0.00000000000000E+00   0.00000000000000E+00   0.00000000000000E+00
      0.00000000000000E+00  -6.90015302047858E-17
      4.06283333333333E-02
      0.00000000000000E+00   0.00000000000000E+00   0.00000000000000E+00   0.00000000000000E+00  -1.80790174156768E-13
     -7.14187654983229E-18  -1.80797316033318E-13  -7.95382850440782E-16   0.00000000000000E+00   6.93703623162446E-13
      0.00000000000000E+00   0.00000000000000E+00  -6.94549443646487E-14   0.00000000000000E+00  -6.94549443646487E-14
      4.28929742891738E-16   3.45340833333333E-02   3.45340833326331E-02   0.00000000000000E+00   0.00000000000000E+00
      5.17710285460901E-14   0.00000000000000E+00   5.17710285460901E-14   4.37608594204571E-16   0.00000000000000E+00
      0.00000000000000E+00   0.00000000000000E+00   0.00000000000000E+00   0.00000000000000E+00   0.00000000000000E+00
      0.00000000000000E+00  -7.11554866555256E-17
      6.43815833333333E-02
      0.00000000000000E+00   0.00000000000000E+00   0.00000000000000E+00   0.00000000000000E+00  -3.92053232000128E-13
     -1.56770664443537E-17  -3.92068909066572E-13  -7.95704073700471E-16   0.00000000000000E+00   9.98608249058840E-13
      0.00000000000000E+00   0.00000000000000E+00  -1.00097350099766E-13   0.00000000000000E+00  -1.00097350099766E-13
      4.27971229669506E-16   5.47243458333333E-02   5.47243458323278E-02   0.00000000000000E+00   0.00000000000000E+00
      3.93670838648426E-14   0.00000000000000E+00   3.93670838648426E-14   4.41789389732853E-16   0.00000000000000E+00
      0.00000000000000E+00   0.00000000000000E+00   0.00000000000000E+00   0.00000000000000E+00   0.00000000000000E+00
      0.00000000000000E+00  -7.40565457018862E-17
      9.64484708333334E-02
      0.00000000000000E+00   0.00000000000000E+00   0.00000000000000E+00   0.00000000000000E+00   5.81020656956368E-19
     -4.73958597258183E-17  -4.68148390688619E-17  -7.96131274571319E-16   0.00000000000000E+00   1.41377214204627E-12
      0.00000000000000E+00   0.00000000000000E+00  -1.41394312198067E-13   0.00000000000000E+00  -1.41394312198067E-13
      4.26675653941144E-16   8.19812002083334E-02   8.19812002069120E-02   0.00000000000000E+00   0.00000000000000E+00
      1.42116087939771E-13   0.00000000000000E+00   1.42116087939771E-13   4.47416458862462E-16   0.00000000000000E+00
      0.00000000000000E+00   0.00000000000000E+00   0.00000000000000E+00   0.00000000000000E+00   0.00000000000000E+00
      0.00000000000000E+00  -7.79608382322870E-17
      1.38990541583333E-01
      0.00000000000000E+00   0.00000000000000E+00   0.00000000000000E+00   0.00000000000000E+00   1.03069600945988E-17
     -2.34727077001256E-16  -2.24420116906657E-16  -7.96687299011438E-16   0.00000000000000E+00   2.09842279182177E-12
      0.00000000000000E+00   0.00000000000000E+00  -2.09922954076733E-13   0.00000000000000E+00  -2.09922954076733E-13
      4.24954318183173E-16   1.18141960345833E-01   1.18141960343725E-01   0.00000000000000E+00   0.00000000000000E+00
      2.10902513844804E-13   0.00000000000000E+00   2.10902513844804E-13   4.54852642658625E-16   0.00000000000000E+00
      0.00000000000000E+00   0.00000000000000E+00   0.00000000000000E+00   0.00000000000000E+00   0.00000000000000E+00
      0.00000000000000E+00  -8.31196618303620E-17
      1.95429688778333E-01
      0.00000000000000E+00   0.00000000000000E+00   0.00000000000000E+00   0.00000000000000E+00   5.02723079721743E-17
     -1.92320202102786E-15  -1.87292971305569E-15  -7.97407574434602E-16   0.00000000000000E+00   3.49840213558975E-12
      0.00000000000000E+00   0.00000000000000E+00  -3.49846134112055E-13   0.00000000000000E+00  -3.49846134112055E-13
      4.22666775889105E-16   1.66115235461583E-01   1.66115235458055E-01   0.00000000000000E+00   0.00000000000000E+00
      3.52850798968690E-13   0.00000000000000E+00   3.52850798968690E-13   4.64669310487066E-16   0.00000000000000E+00
      0.00000000000000E+00   0.00000000000000E+00   0.00000000000000E+00   0.00000000000000E+00   0.00000000000000E+00
      0.00000000000000E+00  -8.99285119415710E-17
      2.70305624057033E-01
      0.00000000000000E+00   0.00000000000000E+00   0.00000000000000E+00   0.00000000000000E+00   2.36422373911763E-16
     -2.22802897129828E-14  -2.20438673390711E-14  -7.98335667415396E-16   0.00000000000000E+00   7.00645635466763E-12
      0.00000000000000E+00   0.00000000000000E+00  -7.00602486848546E-13   0.00000000000000E+00  -7.00602486848546E-13
      4.19626338059876E-16   2.29759780448478E-01   2.29759780441223E-01   0.00000000000000E+00   0.00000000000000E+00
      7.25480802813217E-13   0.00000000000000E+00   7.25480802813217E-13   4.77611747585639E-16   0.00000000000000E+00
      0.00000000000000E+00   0.00000000000000E+00   0.00000000000000E+00   0.00000000000000E+00   0.00000000000000E+00
      0.00000000000000E+00  -9.89024182301172E-17
      3.69641031526775E-01
      0.00000000000000E+00   0.00000000000000E+00   0.00000000000000E+00   0.00000000000000E+00  -1.34042804782911E-15
     -4.43898846254794E-13  -4.45239274302623E-13  -7.99524746292857E-16   0.00000000000000E+00   1.79553450502112E-11
      0.00000000000000E+00   0.00000000000000E+00  -1.79554935184224E-12   0.00000000000000E+00  -1.79554935184224E-12
      4.15585593167590E-16   3.14194876797759E-01   3.14194876775194E-01   0.00000000000000E+00   0.00000000000000E+00
      2.25651199115913E-12   0.00000000000000E+00   2.25651199115913E-12   4.94644728649587E-16   0.00000000000000E+00
      0.00000000000000E+00   0.00000000000000E+00   0.00000000000000E+00   0.00000000000000E+00   0.00000000000000E+00
      0.00000000000000E+00  -1.10705575524319E-16
      5.01426005436633E-01
      0.00000000000000E+00   0.00000000000000E+00   0.00000000000000E+00   0.00000000000000E+00   6.55047123498763E-18
     -9.46839977182185E-12  -9.46839322135062E-12  -8.01038727012838E-16   0.00000000000000E+00   6.22099438990382E-11
      0.00000000000000E+00   0.00000000000000E+00  -6.22093506286798E-12   0.00000000000000E+00  -6.22093506286798E-12
      4.10218428238301E-16   4.26212104621138E-01   4.26212104462401E-01   0.00000000000000E+00   0.00000000000000E+00
      1.58737718022655E-11   0.00000000000000E+00   1.58737718022655E-11   5.16997458402493E-16   0.00000000000000E+00
      0.00000000000000E+00   0.00000000000000E+00   0.00000000000000E+00   0.00000000000000E+00   0.00000000000000E+00
      0.00000000000000E+00  -1.26177159627955E-16
      6.73185754765814E-01
      0.00000000000000E+00   0.00000000000000E+00   0.00000000000000E+00   0.00000000000000E+00   1.45755159850641E-17
     -2.73024248353392E-10  -2.73024233777876E-10  -8.02917089985715E-16   0.00000000000000E+00   2.94924451696579E-10
      0.00000000000000E+00   0.00000000000000E+00  -2.94924218605209E-11   0.00000000000000E+00  -2.94924218605209E-11
      4.03221835106211E-16   5.72207891550942E-01   5.72207886419125E-01   0.00000000000000E+00   0.00000000000000E+00
      5.13181712987974E-10   0.00000000000000E+00   5.13181712987974E-10   5.45693604265618E-16   0.00000000000000E+00
      0.00000000000000E+00   0.00000000000000E+00   0.00000000000000E+00   0.00000000000000E+00   0.00000000000000E+00
      0.00000000000000E+00  -1.45998349386114E-16
      8.73185754765814E-01
      0.00000000000000E+00   0.00000000000000E+00   0.00000000000000E+00   0.00000000000000E+00  -5.81857474268797E-14
     -1.01368004854324E-09  -1.01373823429067E-09  -8.04978637901323E-16   0.00000000000000E+00   1.58142064640316E-09
      0.00000000000000E+00   0.00000000000000E+00  -1.58142162996288E-10   0.00000000000000E+00  -1.58142162996288E-10
      3.95079915968791E-16   7.42207891550942E-01   7.42207752361300E-01   0.00000000000000E+00   0.00000000000000E+00
      1.39189646231316E-08   0.00000000000000E+00   1.39189646231316E-08   5.78480822015412E-16   0.00000000000000E+00
      0.00000000000000E+00   0.00000000000000E+00   0.00000000000000E+00   0.00000000000000E+00   0.00000000000000E+00
      0.00000000000000E+00  -1.68582100082879E-16
      1.00000000000000E+00
      0.00000000000000E+00   0.00000000000000E+00   0.00000000000000E+00   0.00000000000000E+00  -1.30250363511130E-17
     -2.07627562824848E-09  -2.07627564127352E-09  -8.06220047993582E-16   0.00000000000000E+00   4.21005729304351E-09
      0.00000000000000E+00   0.00000000000000E+00  -4.21005735901948E-10   0.00000000000000E+00  -4.21005735901948E-10
      3.89921269649610E-16   8.50000000000000E-01   8.49999706716735E-01   0.00000000000000E+00   0.00000000000000E+00
      2.93283264822862E-08   0.00000000000000E+00   2.93283264822862E-08   5.98941154199655E-16   0.00000000000000E+00
      0.00000000000000E+00   0.00000000000000E+00   0.00000000000000E+00   0.00000000000000E+00   0.00000000000000E+00
      0.00000000000000E+00  -1.82642375855683E-16
}
