DF-ISE text

Info {
  version   = 1.0
  type      = xyplot
  datasets  = [
    "time"
    "Substrate OuterVoltage" "Substrate InnerVoltage" "Substrate QuasiFermiPotential" "Substrate DisplacementCurrent" "Substrate eCurrent"
    "Substrate hCurrent" "Substrate TotalCurrent" "Substrate Charge" "source OuterVoltage" "source InnerVoltage"
    "source QuasiFermiPotential" "source DisplacementCurrent" "source eCurrent" "source hCurrent" "source TotalCurrent"
    "source Charge" "drain OuterVoltage" "drain InnerVoltage" "drain QuasiFermiPotential" "drain DisplacementCurrent"
    "drain eCurrent" "drain hCurrent" "drain TotalCurrent" "drain Charge" "gate OuterVoltage"
    "gate InnerVoltage" "gate QuasiFermiPotential" "gate DisplacementCurrent" "gate eCurrent" "gate hCurrent"
    "gate TotalCurrent" "gate Charge" ]
  functions = [
    Time
    OuterVoltage InnerVoltage QuasiFermiPotential DisplacementCurrent eCurrent
    hCurrent TotalCurrent Charge OuterVoltage InnerVoltage
    QuasiFermiPotential DisplacementCurrent eCurrent hCurrent TotalCurrent
    Charge OuterVoltage InnerVoltage QuasiFermiPotential DisplacementCurrent
    eCurrent hCurrent TotalCurrent Charge OuterVoltage
    InnerVoltage QuasiFermiPotential DisplacementCurrent eCurrent hCurrent
    TotalCurrent Charge ]
}

Data {
      0.00000000000000E+00
      0.00000000000000E+00   0.00000000000000E+00   0.00000000000000E+00   0.00000000000000E+00  -9.88108595936597E-21
     -4.38325679596916E-31  -9.88108595980429E-21  -7.94858180185969E-16   0.00000000000000E+00  -3.37533080787403E-18
      0.00000000000000E+00   0.00000000000000E+00   4.22485193638396E-18   0.00000000000000E+00   4.22485193638396E-18
      4.17728990032162E-16   0.00000000000000E+00  -2.53595199359245E-18   0.00000000000000E+00   0.00000000000000E+00
      2.66248189284972E-18   0.00000000000000E+00   2.66248189284972E-18   4.30453198133704E-16   0.00000000000000E+00
      0.00000000000000E+00   0.00000000000000E+00   0.00000000000000E+00   0.00000000000000E+00   0.00000000000000E+00
      0.00000000000000E+00  -5.33240079798963E-17
      0.00000000000000E+00
      0.00000000000000E+00   0.00000000000000E+00   0.00000000000000E+00   0.00000000000000E+00   2.34684058015279E-18
     -6.49671774180830E-30   2.34684058014630E-18  -7.94858144882420E-16   0.00000000000000E+00  -2.32421775626781E-23
      0.00000000000000E+00   0.00000000000000E+00  -4.69110676238476E-17   0.00000000000000E+00  -4.69110676238476E-17
      4.17728974510798E-16   0.00000000000000E+00  -1.20949693127307E-24   0.00000000000000E+00   0.00000000000000E+00
      3.37033248998341E-17   0.00000000000000E+00   3.37033248998341E-17   4.30453182616341E-16   0.00000000000000E+00
      0.00000000000000E+00   0.00000000000000E+00   0.00000000000000E+00   0.00000000000000E+00   0.00000000000000E+00
      0.00000000000000E+00  -5.33240122447185E-17
      0.00000000000000E+00
      0.00000000000000E+00   0.00000000000000E+00   0.00000000000000E+00   0.00000000000000E+00   2.45224230401882E-20
     -1.05173361769857E-30   2.45224230391365E-20  -7.94858144882241E-16   0.00000000000000E+00  -9.10625871278699E-28
      0.00000000000000E+00   0.00000000000000E+00  -1.98202541616323E-17   0.00000000000000E+00  -1.98202541616323E-17
      4.17728974510720E-16   0.00000000000000E+00  -1.78631984545170E-27   0.00000000000000E+00   0.00000000000000E+00
      2.85842925530758E-17   0.00000000000000E+00   2.85842925530758E-17   4.30453182616262E-16   0.00000000000000E+00
      0.00000000000000E+00   0.00000000000000E+00   0.00000000000000E+00   0.00000000000000E+00   0.00000000000000E+00
      0.00000000000000E+00  -5.33240122447402E-17
      1.00000000000000E-02
      0.00000000000000E+00   0.00000000000000E+00   0.00000000000000E+00   0.00000000000000E+00   8.88725635549323E-19
     -8.74703770653211E-20   8.01255258484001E-19  -7.94866339751986E-16   0.00000000000000E+00   5.51014116848167E-14
      0.00000000000000E+00   0.00000000000000E+00  -1.26251461674109E-15   0.00000000000000E+00  -1.26251461674109E-15
      4.17705212402405E-16   5.00000000000000E-04   4.99999999943665E-04   0.00000000000000E+00   0.00000000000000E+00
      1.51026611301417E-15   0.00000000000000E+00   1.51026611301417E-15   4.30557191780908E-16   0.00000000000000E+00
      0.00000000000000E+00   0.00000000000000E+00   0.00000000000000E+00   0.00000000000000E+00   0.00000000000000E+00
      0.00000000000000E+00  -5.33960644313270E-17
      2.23666666666667E-02
      0.00000000000000E+00   0.00000000000000E+00   0.00000000000000E+00   0.00000000000000E+00  -2.62896307836370E-19
     -1.95547375684396E-19  -4.58443683520766E-19  -7.94876470112013E-16   0.00000000000000E+00   1.22436556406890E-13
      0.00000000000000E+00   0.00000000000000E+00  -2.99188756217139E-15   0.00000000000000E+00  -2.99188756217139E-15
      4.17675825552975E-16   1.11833333333333E-03   1.11833333320822E-03   0.00000000000000E+00   0.00000000000000E+00
      3.17316706440310E-15   0.00000000000000E+00   3.17316706440310E-15   4.30685806829019E-16   0.00000000000000E+00
      0.00000000000000E+00   0.00000000000000E+00   0.00000000000000E+00   0.00000000000000E+00   0.00000000000000E+00
      0.00000000000000E+00  -5.34851622699827E-17
      3.76601111111111E-02
      0.00000000000000E+00   0.00000000000000E+00   0.00000000000000E+00   0.00000000000000E+00  -1.07003828981189E-19
     -3.29097780414461E-19  -4.36101609395650E-19  -7.94888991941097E-16   0.00000000000000E+00   2.04501158914936E-13
      0.00000000000000E+00   0.00000000000000E+00  -5.10239246518564E-15   0.00000000000000E+00  -5.10239246518564E-15
      4.17639482226214E-16   1.88300555555556E-03   1.88300555534671E-03   0.00000000000000E+00   0.00000000000000E+00
      5.21812561599728E-15   0.00000000000000E+00   5.21812561599728E-15   4.30844846067834E-16   0.00000000000000E+00
      0.00000000000000E+00   0.00000000000000E+00   0.00000000000000E+00   0.00000000000000E+00   0.00000000000000E+00
      0.00000000000000E+00  -5.35953363529504E-17
      5.65730040740741E-02
      0.00000000000000E+00   0.00000000000000E+00   0.00000000000000E+00   0.00000000000000E+00  -2.72455826499225E-20
     -4.94171548985001E-19  -5.21417131634923E-19  -7.94904468037071E-16   0.00000000000000E+00   3.04193500723863E-13
      0.00000000000000E+00   0.00000000000000E+00  -7.55486941363010E-15   0.00000000000000E+00  -7.55486941363010E-15
      4.17594535222199E-16   2.82865020370370E-03   2.82865020339328E-03   0.00000000000000E+00   0.00000000000000E+00
      7.76718417448430E-15   0.00000000000000E+00   7.76718417448430E-15   4.31041502118055E-16   0.00000000000000E+00
      0.00000000000000E+00   0.00000000000000E+00   0.00000000000000E+00   0.00000000000000E+00   0.00000000000000E+00
      0.00000000000000E+00  -5.37315693031826E-17
      7.99619483716049E-02
      0.00000000000000E+00   0.00000000000000E+00   0.00000000000000E+00   0.00000000000000E+00  -2.72788997355786E-19
     -6.98332735873431E-19  -9.71121733229217E-19  -7.94923592725041E-16   0.00000000000000E+00   4.24829792118993E-13
      0.00000000000000E+00   0.00000000000000E+00  -1.05984608170092E-14   0.00000000000000E+00  -1.05984608170092E-14
      4.17538947069326E-16   3.99809741858025E-03   3.99809741814709E-03   0.00000000000000E+00   0.00000000000000E+00
      1.07774092463759E-14   0.00000000000000E+00   1.07774092463759E-14   4.31284665751596E-16   0.00000000000000E+00
      0.00000000000000E+00   0.00000000000000E+00   0.00000000000000E+00   0.00000000000000E+00   0.00000000000000E+00
      0.00000000000000E+00  -5.39000200958809E-17
      1.08886276152885E-01
      0.00000000000000E+00   0.00000000000000E+00   0.00000000000000E+00   0.00000000000000E+00  -3.45637057590502E-19
     -9.51128618364375E-19  -1.29676567595488E-18  -7.94947222117195E-16   0.00000000000000E+00   5.70134840888936E-13
      0.00000000000000E+00   0.00000000000000E+00  -1.41874606580450E-14   0.00000000000000E+00  -1.41874606580450E-14
      4.17470197436134E-16   5.44431380764424E-03   5.44431380706350E-03   0.00000000000000E+00   0.00000000000000E+00
      1.44886915816759E-14   0.00000000000000E+00   1.44886915816759E-14   4.31585325626111E-16   0.00000000000000E+00
      0.00000000000000E+00   0.00000000000000E+00   0.00000000000000E+00   0.00000000000000E+00   0.00000000000000E+00
      0.00000000000000E+00  -5.41083009450475E-17
      1.44656028175734E-01
      0.00000000000000E+00   0.00000000000000E+00   0.00000000000000E+00   0.00000000000000E+00  -3.70830033181958E-19
     -1.26479467425191E-18  -1.63562470743386E-18  -7.94976411087206E-16   0.00000000000000E+00   7.44201682378175E-13
      0.00000000000000E+00   0.00000000000000E+00  -1.86206044428614E-14   0.00000000000000E+00  -1.86206044428614E-14
      4.17385168517304E-16   7.23280140878671E-03   7.23280140802951E-03   0.00000000000000E+00   0.00000000000000E+00
      1.89258343644605E-14   0.00000000000000E+00   1.89258343644605E-14   4.31957061488833E-16   0.00000000000000E+00
      0.00000000000000E+00   0.00000000000000E+00   0.00000000000000E+00   0.00000000000000E+00   0.00000000000000E+00
      0.00000000000000E+00  -5.43658189189299E-17
      1.88891288177325E-01
      0.00000000000000E+00   0.00000000000000E+00   0.00000000000000E+00   0.00000000000000E+00  -7.31374734182012E-19
     -1.65538688389957E-18  -2.38676161808158E-18  -7.95012458322830E-16   0.00000000000000E+00   9.51408026355694E-13
      0.00000000000000E+00   0.00000000000000E+00  -2.37585684940365E-14   0.00000000000000E+00  -2.37585684940365E-14
      4.17280003125637E-16   9.44456440886623E-03   9.44456440789940E-03   0.00000000000000E+00   0.00000000000000E+00
      2.41706508725004E-14   0.00000000000000E+00   2.41706508725004E-14   4.32416652379279E-16   0.00000000000000E+00
      0.00000000000000E+00   0.00000000000000E+00   0.00000000000000E+00   0.00000000000000E+00   0.00000000000000E+00
      0.00000000000000E+00  -5.46841971820845E-17
      2.43595559712625E-01
      0.00000000000000E+00   0.00000000000000E+00   0.00000000000000E+00   0.00000000000000E+00  -7.60030563962628E-19
     -2.14472800479622E-18  -2.90475856875884E-18  -7.95056961032819E-16   0.00000000000000E+00   1.19633078947700E-12
      0.00000000000000E+00   0.00000000000000E+00  -2.98778313937000E-14   0.00000000000000E+00  -2.98778313937000E-14
      4.17149928949268E-16   1.21797779856312E-02   1.21797779844171E-02   0.00000000000000E+00   0.00000000000000E+00
      3.03701662297193E-14   0.00000000000000E+00   3.03701662297193E-14   4.32984826151244E-16   0.00000000000000E+00
      0.00000000000000E+00   0.00000000000000E+00   0.00000000000000E+00   0.00000000000000E+00   0.00000000000000E+00
      0.00000000000000E+00  -5.50777940676934E-17
      3.11246508844612E-01
      0.00000000000000E+00   0.00000000000000E+00   0.00000000000000E+00   0.00000000000000E+00  -6.10580289449750E-19
     -2.76398589620585E-18  -3.37456618565560E-18  -7.95111881096542E-16   0.00000000000000E+00   1.48369320379140E-12
      0.00000000000000E+00   0.00000000000000E+00  -3.70724002686899E-14   0.00000000000000E+00  -3.70724002686899E-14
      4.16989040849456E-16   1.55623254422306E-02   1.55623254407270E-02   0.00000000000000E+00   0.00000000000000E+00
      3.75593553920928E-14   0.00000000000000E+00   3.75593553920928E-14   4.33687182406889E-16   0.00000000000000E+00
      0.00000000000000E+00   0.00000000000000E+00   0.00000000000000E+00   0.00000000000000E+00   0.00000000000000E+00
      0.00000000000000E+00  -5.55643421598038E-17
      3.94908182604504E-01
      0.00000000000000E+00   0.00000000000000E+00   0.00000000000000E+00   0.00000000000000E+00  -1.11311342125329E-18
     -3.56066486412991E-18  -4.67377828538320E-18  -7.95179624635808E-16   0.00000000000000E+00   1.81827175231405E-12
      0.00000000000000E+00   0.00000000000000E+00  -4.54408383824540E-14   0.00000000000000E+00  -4.54408383824540E-14
      4.16790031101482E-16   1.97454091302252E-02   1.97454091283852E-02   0.00000000000000E+00   0.00000000000000E+00
      4.60180890730528E-14   0.00000000000000E+00   4.60180890730528E-14   4.34555327850054E-16   0.00000000000000E+00
      0.00000000000000E+00   0.00000000000000E+00   0.00000000000000E+00   0.00000000000000E+00   0.00000000000000E+00
      0.00000000000000E+00  -5.61657343157294E-17
      4.98369785820903E-01
      0.00000000000000E+00   0.00000000000000E+00   0.00000000000000E+00   0.00000000000000E+00  -1.53171840199133E-18
     -4.61314420721489E-18  -6.14486260920622E-18  -7.95263137126502E-16   0.00000000000000E+00   2.20549735036384E-12
      0.00000000000000E+00   0.00000000000000E+00  -5.50882828267466E-14   0.00000000000000E+00  -5.50882828267466E-14
      4.16543855024869E-16   2.49184892910452E-02   2.49184892888164E-02   0.00000000000000E+00   0.00000000000000E+00
      5.56621164603526E-14   0.00000000000000E+00   5.56621164603526E-14   4.35628271292645E-16   0.00000000000000E+00
      0.00000000000000E+00   0.00000000000000E+00   0.00000000000000E+00   0.00000000000000E+00   0.00000000000000E+00
      0.00000000000000E+00  -5.69089891910126E-17
      6.26317301798517E-01
      0.00000000000000E+00   0.00000000000000E+00   0.00000000000000E+00   0.00000000000000E+00  -1.57785559528401E-18
     -6.06287400461498E-18  -7.64072959989899E-18  -7.95366016207422E-16   0.00000000000000E+00   2.65216474931019E-12
      0.00000000000000E+00   0.00000000000000E+00  -6.63367351711176E-14   0.00000000000000E+00  -6.63367351711176E-14
      4.16239316392331E-16   3.13158650899259E-02   3.13158650872493E-02   0.00000000000000E+00   0.00000000000000E+00
      6.69285660652642E-14   0.00000000000000E+00   6.69285660652642E-14   4.36954135264660E-16   0.00000000000000E+00
      0.00000000000000E+00   0.00000000000000E+00   0.00000000000000E+00   0.00000000000000E+00   0.00000000000000E+00
      0.00000000000000E+00  -5.78274354495679E-17
      7.84545729890833E-01
      0.00000000000000E+00   0.00000000000000E+00   0.00000000000000E+00   0.00000000000000E+00  -1.41358719723376E-18
     -8.19117234961800E-18  -9.60475954685176E-18  -7.95492644225938E-16   0.00000000000000E+00   3.16913618284564E-12
      0.00000000000000E+00   0.00000000000000E+00  -7.92026533426348E-14   0.00000000000000E+00  -7.92026533426348E-14
      4.15862553208907E-16   3.92272864945416E-02   3.92272864913473E-02   0.00000000000000E+00   0.00000000000000E+00
      7.98818223667752E-14   0.00000000000000E+00   7.98818223667752E-14   4.38592252575408E-16   0.00000000000000E+00
      0.00000000000000E+00   0.00000000000000E+00   0.00000000000000E+00   0.00000000000000E+00   0.00000000000000E+00
      0.00000000000000E+00  -5.89621615583798E-17
      9.80221552631663E-01
      0.00000000000000E+00   0.00000000000000E+00   0.00000000000000E+00   0.00000000000000E+00  -1.60478070644653E-18
     -1.16192029283948E-17  -1.32239836348413E-17  -7.95648342218626E-16   0.00000000000000E+00   3.77607760242860E-12
      0.00000000000000E+00   0.00000000000000E+00  -9.44542335866052E-14   0.00000000000000E+00  -9.44542335866052E-14
      4.15396399747398E-16   4.90110776315832E-02   4.90110776277812E-02   0.00000000000000E+00   0.00000000000000E+00
      9.51201493911580E-14   0.00000000000000E+00   9.51201493911580E-14   4.40615729480189E-16   0.00000000000000E+00
      0.00000000000000E+00   0.00000000000000E+00   0.00000000000000E+00   0.00000000000000E+00   0.00000000000000E+00
      0.00000000000000E+00  -6.03637870089629E-17
      1.00000000000000E+00
      0.00000000000000E+00   0.00000000000000E+00   0.00000000000000E+00   0.00000000000000E+00  -2.00046202577686E-18
     -1.20324512962150E-17  -1.40329133219919E-17  -7.95664025319843E-16   0.00000000000000E+00   3.83632395528350E-12
      0.00000000000000E+00   0.00000000000000E+00  -9.59287393549488E-14   0.00000000000000E+00  -9.59287393549488E-14
      4.15349268665013E-16   5.00000000000000E-02   4.99999999961377E-02   0.00000000000000E+00   0.00000000000000E+00
      9.65715075971178E-14   0.00000000000000E+00   9.65715075971178E-14   4.40820115379949E-16   0.00000000000000E+00
      0.00000000000000E+00   0.00000000000000E+00   0.00000000000000E+00   0.00000000000000E+00   0.00000000000000E+00
      0.00000000000000E+00  -6.05053587251161E-17
}
