DF-ISE text

Info {
  version   = 1.0
  type      = xyplot
  datasets  = [
    "time"
    "Substrate OuterVoltage" "Substrate InnerVoltage" "Substrate QuasiFermiPotential" "Substrate DisplacementCurrent" "Substrate eCurrent"
    "Substrate hCurrent" "Substrate TotalCurrent" "Substrate Charge" "source OuterVoltage" "source InnerVoltage"
    "source QuasiFermiPotential" "source DisplacementCurrent" "source eCurrent" "source hCurrent" "source TotalCurrent"
    "source Charge" "drain OuterVoltage" "drain InnerVoltage" "drain QuasiFermiPotential" "drain DisplacementCurrent"
    "drain eCurrent" "drain hCurrent" "drain TotalCurrent" "drain Charge" "gate OuterVoltage"
    "gate InnerVoltage" "gate QuasiFermiPotential" "gate DisplacementCurrent" "gate eCurrent" "gate hCurrent"
    "gate TotalCurrent" "gate Charge" ]
  functions = [
    Time
    OuterVoltage InnerVoltage QuasiFermiPotential DisplacementCurrent eCurrent
    hCurrent TotalCurrent Charge OuterVoltage InnerVoltage
    QuasiFermiPotential DisplacementCurrent eCurrent hCurrent TotalCurrent
    Charge OuterVoltage InnerVoltage QuasiFermiPotential DisplacementCurrent
    eCurrent hCurrent TotalCurrent Charge OuterVoltage
    InnerVoltage QuasiFermiPotential DisplacementCurrent eCurrent hCurrent
    TotalCurrent Charge ]
}

Data {
      0.00000000000000E+00
      0.00000000000000E+00   0.00000000000000E+00   0.00000000000000E+00   0.00000000000000E+00   1.57256164869778E-20
     -3.53285447151689E-31   1.57256164866245E-20  -7.94849791315871E-16   0.00000000000000E+00   1.86833985284590E-18
      0.00000000000000E+00   0.00000000000000E+00   7.20139029720001E-19   0.00000000000000E+00   7.20139029720001E-19
      4.30647999657935E-16   0.00000000000000E+00  -1.46277339748999E-19   0.00000000000000E+00   0.00000000000000E+00
      6.65636397602065E-18   0.00000000000000E+00   6.65636397602065E-18   4.30501066954021E-16   0.00000000000000E+00
      0.00000000000000E+00   0.00000000000000E+00   0.00000000000000E+00   0.00000000000000E+00   0.00000000000000E+00
      0.00000000000000E+00  -6.62992752960844E-17
      0.00000000000000E+00
      0.00000000000000E+00   0.00000000000000E+00   0.00000000000000E+00   0.00000000000000E+00   4.33322317204495E-15
     -1.05644449990225E-26   4.33322317203438E-15  -7.94848267113853E-16   0.00000000000000E+00   5.19255786833536E-22
      0.00000000000000E+00   0.00000000000000E+00  -1.08766435274590E-16   0.00000000000000E+00  -1.08766435274590E-16
      4.30647329874869E-16   0.00000000000000E+00  -9.57751911511258E-23   0.00000000000000E+00   0.00000000000000E+00
     -1.12701299776586E-16   0.00000000000000E+00  -1.12701299776586E-16   4.30500397019908E-16   0.00000000000000E+00
      0.00000000000000E+00   0.00000000000000E+00   0.00000000000000E+00   0.00000000000000E+00   0.00000000000000E+00
      0.00000000000000E+00  -6.62994597809242E-17
      0.00000000000000E+00
      0.00000000000000E+00   0.00000000000000E+00   0.00000000000000E+00   0.00000000000000E+00   2.23583430486331E-20
     -1.10448242658610E-30   2.23583430475286E-20  -7.94848266830415E-16   0.00000000000000E+00   2.91504815612886E-27
      0.00000000000000E+00   0.00000000000000E+00  -2.41632561436691E-17   0.00000000000000E+00  -2.41632561436691E-17
      4.30647329750312E-16   0.00000000000000E+00  -4.84217766563013E-26   0.00000000000000E+00   0.00000000000000E+00
      2.68152519834521E-17   0.00000000000000E+00   2.68152519834521E-17   4.30500396895322E-16   0.00000000000000E+00
      0.00000000000000E+00   0.00000000000000E+00   0.00000000000000E+00   0.00000000000000E+00   0.00000000000000E+00
      0.00000000000000E+00  -6.62994598152185E-17
      1.00000000000000E-02
      0.00000000000000E+00   0.00000000000000E+00   0.00000000000000E+00   0.00000000000000E+00  -1.11613663199656E-17
     -1.49018444542811E-18  -1.26515507653937E-17  -7.94987240264163E-16   0.00000000000000E+00   2.13278997671565E-13
      0.00000000000000E+00   0.00000000000000E+00  -2.13340585186296E-14   0.00000000000000E+00  -2.13340585186296E-14
      4.30243681264292E-16   8.50000000000000E-03   8.49999999978311E-03   0.00000000000000E+00   0.00000000000000E+00
      2.16786156640976E-14   0.00000000000000E+00   2.16786156640976E-14   4.32267565404820E-16   0.00000000000000E+00
      0.00000000000000E+00   0.00000000000000E+00   0.00000000000000E+00   0.00000000000000E+00   0.00000000000000E+00
      0.00000000000000E+00  -6.75240064049528E-17
      2.30333333333333E-02
      0.00000000000000E+00   0.00000000000000E+00   0.00000000000000E+00   0.00000000000000E+00  -1.56376978740572E-14
     -3.53387039080828E-18  -1.56412317444480E-14  -7.95167152637290E-16   0.00000000000000E+00   4.45700028588110E-13
      0.00000000000000E+00   0.00000000000000E+00  -4.45464831240609E-14   0.00000000000000E+00  -4.45464831240609E-14
      4.29717276269404E-16   1.95783333333333E-02   1.95783333328822E-02   0.00000000000000E+00   0.00000000000000E+00
      3.96688163550075E-14   0.00000000000000E+00   3.96688163550075E-14   4.34567777273102E-16   0.00000000000000E+00
      0.00000000000000E+00   0.00000000000000E+00   0.00000000000000E+00   0.00000000000000E+00   0.00000000000000E+00
      0.00000000000000E+00  -6.91179009052161E-17
      4.06283333333333E-02
      0.00000000000000E+00   0.00000000000000E+00   0.00000000000000E+00   0.00000000000000E+00  -3.10535433799065E-14
     -6.88957373679730E-18  -3.10604329536433E-14  -7.95407913719347E-16   0.00000000000000E+00   7.07740987054916E-13
      0.00000000000000E+00   0.00000000000000E+00  -7.08197266782693E-14   0.00000000000000E+00  -7.08197266782693E-14
      4.29006087062746E-16   3.45340833333333E-02   3.45340833326194E-02   0.00000000000000E+00   0.00000000000000E+00
      5.36724405497127E-14   0.00000000000000E+00   5.36724405497127E-14   4.37667732345067E-16   0.00000000000000E+00
      0.00000000000000E+00   0.00000000000000E+00   0.00000000000000E+00   0.00000000000000E+00   0.00000000000000E+00
      0.00000000000000E+00  -7.12659056884661E-17
      6.43815833333333E-02
      0.00000000000000E+00   0.00000000000000E+00   0.00000000000000E+00   0.00000000000000E+00  -3.75097486317419E-14
     -1.42599643661916E-17  -3.75240085961081E-14  -7.95729219994358E-16   0.00000000000000E+00   1.01820689727486E-12
      0.00000000000000E+00   0.00000000000000E+00  -1.02125624074741E-13   0.00000000000000E+00  -1.02125624074741E-13
      4.28045050763470E-16   5.47243458333333E-02   5.47243458323085E-02   0.00000000000000E+00   0.00000000000000E+00
      4.27404793355844E-14   0.00000000000000E+00   4.27404793355844E-14   4.41843095513040E-16   0.00000000000000E+00
      0.00000000000000E+00   0.00000000000000E+00   0.00000000000000E+00   0.00000000000000E+00   0.00000000000000E+00
      0.00000000000000E+00  -7.41589262821497E-17
      9.64484708333334E-02
      0.00000000000000E+00   0.00000000000000E+00   0.00000000000000E+00   0.00000000000000E+00  -7.44352705878960E-19
     -3.96937667925669E-17  -4.04381194984459E-17  -7.96156524846892E-16   0.00000000000000E+00   1.44038452563133E-12
      0.00000000000000E+00   0.00000000000000E+00  -1.44062615373971E-13   0.00000000000000E+00  -1.44062615373971E-13
      4.26746082792232E-16   8.19812002083334E-02   8.19812002068858E-02   0.00000000000000E+00   0.00000000000000E+00
      1.44743408310148E-13   0.00000000000000E+00   1.44743408310148E-13   4.47462764042246E-16   0.00000000000000E+00
      0.00000000000000E+00   0.00000000000000E+00   0.00000000000000E+00   0.00000000000000E+00   0.00000000000000E+00
      0.00000000000000E+00  -7.80523219875828E-17
      1.38990541583333E-01
      0.00000000000000E+00   0.00000000000000E+00   0.00000000000000E+00   0.00000000000000E+00   4.04930960985812E-18
     -1.84864390693277E-16  -1.80815081083419E-16  -7.96712677978603E-16   0.00000000000000E+00   2.13567911130602E-12
      0.00000000000000E+00   0.00000000000000E+00  -2.13620187134355E-13   0.00000000000000E+00  -2.13620187134355E-13
      4.25020275273612E-16   1.18141960345833E-01   1.18141960343688E-01   0.00000000000000E+00   0.00000000000000E+00
      2.14553978349222E-13   0.00000000000000E+00   2.14553978349222E-13   4.54888953724931E-16   0.00000000000000E+00
      0.00000000000000E+00   0.00000000000000E+00   0.00000000000000E+00   0.00000000000000E+00   0.00000000000000E+00
      0.00000000000000E+00  -8.31965510199415E-17
      1.95429688778333E-01
      0.00000000000000E+00   0.00000000000000E+00   0.00000000000000E+00   0.00000000000000E+00   3.11797685558629E-17
     -1.49992460212350E-15  -1.46874483356764E-15  -7.97433117185803E-16   0.00000000000000E+00   3.55592889169052E-12
      0.00000000000000E+00   0.00000000000000E+00  -3.55629275050797E-13   0.00000000000000E+00  -3.55629275050797E-13
      4.22726850465236E-16   1.66115235461583E-01   1.66115235458000E-01   0.00000000000000E+00   0.00000000000000E+00
      3.58321137277811E-13   0.00000000000000E+00   3.58321137277811E-13   4.64692040943101E-16   0.00000000000000E+00
      0.00000000000000E+00   0.00000000000000E+00   0.00000000000000E+00   0.00000000000000E+00   0.00000000000000E+00
      0.00000000000000E+00  -8.99857742225369E-17
      2.70305624057033E-01
      0.00000000000000E+00   0.00000000000000E+00   0.00000000000000E+00   0.00000000000000E+00   1.85209490053493E-16
     -1.74329656248724E-14  -1.72477561348189E-14  -7.98361431859500E-16   0.00000000000000E+00   7.11208104880376E-12
      0.00000000000000E+00   0.00000000000000E+00  -7.11162704327401E-13   0.00000000000000E+00  -7.11162704327401E-13
      4.19678669992306E-16   2.29759780448478E-01   2.29759780441150E-01   0.00000000000000E+00   0.00000000000000E+00
      7.32914140898513E-13   0.00000000000000E+00   7.32914140898513E-13   4.77616200532451E-16   0.00000000000000E+00
      0.00000000000000E+00   0.00000000000000E+00   0.00000000000000E+00   0.00000000000000E+00   0.00000000000000E+00
      0.00000000000000E+00  -9.89334386652606E-17
      3.69641031526775E-01
      0.00000000000000E+00   0.00000000000000E+00   0.00000000000000E+00   0.00000000000000E+00  -1.47773601166668E-16
     -2.58925662158499E-13  -2.59073435759665E-13  -7.99550837249676E-16   0.00000000000000E+00   1.82045255817898E-11
      0.00000000000000E+00   0.00000000000000E+00  -1.82046538993613E-12   0.00000000000000E+00  -1.82046538993613E-12
      4.15627666463466E-16   3.14194876797759E-01   3.14194876776561E-01   0.00000000000000E+00   0.00000000000000E+00
      2.11980378935979E-12   0.00000000000000E+00   2.11980378935979E-12   4.94625635095190E-16   0.00000000000000E+00
      0.00000000000000E+00   0.00000000000000E+00   0.00000000000000E+00   0.00000000000000E+00   0.00000000000000E+00
      0.00000000000000E+00  -1.10702464308980E-16
      5.01426005436633E-01
      0.00000000000000E+00   0.00000000000000E+00   0.00000000000000E+00   0.00000000000000E+00   1.53279085104553E-16
     -4.67734738715256E-12  -4.67719410806745E-12  -8.01065322203221E-16   0.00000000000000E+00   6.30253342080776E-11
      0.00000000000000E+00   0.00000000000000E+00  -6.30257107463137E-12   0.00000000000000E+00  -6.30257107463137E-12
      4.10246754564054E-16   4.26212104621138E-01   4.26212104447053E-01   0.00000000000000E+00   0.00000000000000E+00
      1.74085362336413E-11   0.00000000000000E+00   1.74085362336413E-11   5.16950377432320E-16   0.00000000000000E+00
      0.00000000000000E+00   0.00000000000000E+00   0.00000000000000E+00   0.00000000000000E+00   0.00000000000000E+00
      0.00000000000000E+00  -1.26131809793153E-16
      6.70110772041251E-01
      0.00000000000000E+00   0.00000000000000E+00   0.00000000000000E+00   0.00000000000000E+00   4.84367710296506E-17
     -1.57197041175991E-10  -1.57196992739220E-10  -8.02911656608773E-16   0.00000000000000E+00   2.90792455358262E-10
      0.00000000000000E+00   0.00000000000000E+00  -2.90792668342311E-11   0.00000000000000E+00  -2.90792668342311E-11
      4.03357573665316E-16   5.69594156235063E-01   5.69594144952948E-01   0.00000000000000E+00   0.00000000000000E+00
      1.12821146425759E-09   0.00000000000000E+00   1.12821146425759E-09   5.45106869405405E-16   0.00000000000000E+00
      0.00000000000000E+00   0.00000000000000E+00   0.00000000000000E+00   0.00000000000000E+00   0.00000000000000E+00
      0.00000000000000E+00  -1.45552786461950E-16
      8.70110772041251E-01
      0.00000000000000E+00   0.00000000000000E+00   0.00000000000000E+00   0.00000000000000E+00  -2.24761919127360E-14
     -5.74286369798025E-10  -5.74308845989938E-10  -8.04976051254146E-16   0.00000000000000E+00   1.56323795353471E-09
      0.00000000000000E+00   0.00000000000000E+00  -1.56323880777000E-10   0.00000000000000E+00  -1.56323880777000E-10
      3.95194415397709E-16   7.39594156235063E-01   7.39594025960537E-01   0.00000000000000E+00   0.00000000000000E+00
      1.30274528521666E-08   0.00000000000000E+00   1.30274528521666E-08   5.77872503601468E-16   0.00000000000000E+00
      0.00000000000000E+00   0.00000000000000E+00   0.00000000000000E+00   0.00000000000000E+00   0.00000000000000E+00
      0.00000000000000E+00  -1.68090867745032E-16
      1.00000000000000E+00
      0.00000000000000E+00   0.00000000000000E+00   0.00000000000000E+00   0.00000000000000E+00  -1.37355654346016E-17
     -1.21675787025281E-09  -1.21675788398837E-09  -8.06248687213457E-16   0.00000000000000E+00   4.26523988935748E-09
      0.00000000000000E+00   0.00000000000000E+00  -4.26524065082874E-10   0.00000000000000E+00  -4.26524065082874E-10
      3.89897122412077E-16   8.50000000000000E-01   8.49999721370650E-01   0.00000000000000E+00   0.00000000000000E+00
      2.78629349825692E-08   0.00000000000000E+00   2.78629349825692E-08   5.98811560752230E-16   0.00000000000000E+00
      0.00000000000000E+00   0.00000000000000E+00   0.00000000000000E+00   0.00000000000000E+00   0.00000000000000E+00
      0.00000000000000E+00  -1.82459995950851E-16
}
